
     Program PWSCF v.6.8 starts on 12Jun2022 at 17:16:41 

     This program is part of the open-source Quantum ESPRESSO suite
     for quantum simulation of materials; please cite
         "P. Giannozzi et al., J. Phys.:Condens. Matter 21 395502 (2009);
         "P. Giannozzi et al., J. Phys.:Condens. Matter 29 465901 (2017);
         "P. Giannozzi et al., J. Chem. Phys. 152 154105 (2020);
          URL http://www.quantum-espresso.org", 
     in publications or presentations arising from this work. More details at
     http://www.quantum-espresso.org/quote

     Parallel version (MPI), running on     1 processors

     MPI processes distributed on     1 nodes
     5148 MiB available memory on the printing compute node when the environment starts

     Waiting for input...
     Reading input from standard input

     Current dimensions of program PWSCF are:
     Max number of different atomic species (ntypx) = 10
     Max number of k-points (npk) =  40000
     Max angular momentum in pseudopotentials (lmaxx) =  4
     file Pb.pbesol-dn-kjpaw_psl.1.0.0.UPF: wavefunction(s)  6S 6P 5D renormalized

     Subspace diagonalization in iterative solution of the eigenvalue problem:
     a serial algorithm will be used


     G-vector sticks info
     --------------------
     sticks:   dense  smooth     PW     G-vecs:    dense   smooth      PW
     Sum        1675     847    253                45767    16361    2733

     Using Slab Decomposition



     bravais-lattice index     =            2
     lattice parameter (alat)  =       9.3557  a.u.
     unit-cell volume          =     204.7214 (a.u.)^3
     number of atoms/cell      =            1
     number of atomic types    =            1
     number of electrons       =        14.00
     number of Kohn-Sham states=           11
     kinetic-energy cutoff     =      70.0000  Ry
     charge density cutoff     =     560.0000  Ry
     scf convergence threshold =      1.0E-09
     mixing beta               =       0.7000
     number of iterations used =            8  plain     mixing
     Exchange-correlation= SLA  PW   PSX  PSC
                           (   1   4  10   8   0   0   0)

     celldm(1)=   9.355659  celldm(2)=   0.000000  celldm(3)=   0.000000
     celldm(4)=   0.000000  celldm(5)=   0.000000  celldm(6)=   0.000000

     crystal axes: (cart. coord. in units of alat)
               a(1) = (  -0.500000   0.000000   0.500000 )  
               a(2) = (   0.000000   0.500000   0.500000 )  
               a(3) = (  -0.500000   0.500000   0.000000 )  

     reciprocal axes: (cart. coord. in units 2 pi/alat)
               b(1) = ( -1.000000 -1.000000  1.000000 )  
               b(2) = (  1.000000  1.000000  1.000000 )  
               b(3) = ( -1.000000  1.000000 -1.000000 )  


     PseudoPot. # 1 for Pb read from file:
     /home/elenacandellone/qe-6.8/pseudo/Pb.pbesol-dn-kjpaw_psl.1.0.0.UPF
     MD5 check sum: fd8a780189ab796002317465a8cd01ca
     Pseudo is Projector augmented-wave + core cor, Zval = 14.0
     Generated using 'atomic' code by A. Dal Corso  v.6.8
     Shape of augmentation charge: PSQ
     Using radial grid of 1281 points,  6 beta functions with: 
                l(1) =   0
                l(2) =   0
                l(3) =   1
                l(4) =   1
                l(5) =   2
                l(6) =   2
     Q(r) pseudized with 0 coefficients 


     atomic species   valence    mass     pseudopotential
        Pb            14.00   207.20000     Pb( 1.00)

     48 Sym. Ops., with inversion, found


                                    s                        frac. trans.

      isym =  1     identity                                     

 cryst.   s( 1) = (     1          0          0      )
                  (     0          1          0      )
                  (     0          0          1      )

 cart.    s( 1) = (  1.0000000  0.0000000  0.0000000 )
                  (  0.0000000  1.0000000  0.0000000 )
                  (  0.0000000  0.0000000  1.0000000 )


      isym =  2     180 deg rotation - cart. axis [0,0,1]        

 cryst.   s( 2) = (     0          1         -1      )
                  (     1          0         -1      )
                  (     0          0         -1      )

 cart.    s( 2) = ( -1.0000000  0.0000000  0.0000000 )
                  (  0.0000000 -1.0000000  0.0000000 )
                  (  0.0000000  0.0000000  1.0000000 )


      isym =  3     180 deg rotation - cart. axis [0,1,0]        

 cryst.   s( 3) = (    -1          0          0      )
                  (    -1          0          1      )
                  (    -1          1          0      )

 cart.    s( 3) = ( -1.0000000  0.0000000  0.0000000 )
                  (  0.0000000  1.0000000  0.0000000 )
                  (  0.0000000  0.0000000 -1.0000000 )


      isym =  4     180 deg rotation - cart. axis [1,0,0]        

 cryst.   s( 4) = (     0         -1          1      )
                  (     0         -1          0      )
                  (     1         -1          0      )

 cart.    s( 4) = (  1.0000000  0.0000000  0.0000000 )
                  (  0.0000000 -1.0000000  0.0000000 )
                  (  0.0000000  0.0000000 -1.0000000 )


      isym =  5     180 deg rotation - cart. axis [1,1,0]        

 cryst.   s( 5) = (     0         -1          0      )
                  (    -1          0          0      )
                  (     0          0         -1      )

 cart.    s( 5) = (  0.0000000  1.0000000  0.0000000 )
                  (  1.0000000  0.0000000  0.0000000 )
                  (  0.0000000  0.0000000 -1.0000000 )


      isym =  6     180 deg rotation - cart. axis [1,-1,0]       

 cryst.   s( 6) = (    -1          0          1      )
                  (     0         -1          1      )
                  (     0          0          1      )

 cart.    s( 6) = (  0.0000000 -1.0000000  0.0000000 )
                  ( -1.0000000  0.0000000  0.0000000 )
                  (  0.0000000  0.0000000 -1.0000000 )


      isym =  7      90 deg rotation - cart. axis [0,0,-1]       

 cryst.   s( 7) = (     0          1          0      )
                  (     0          1         -1      )
                  (    -1          1          0      )

 cart.    s( 7) = (  0.0000000  1.0000000  0.0000000 )
                  ( -1.0000000  0.0000000  0.0000000 )
                  (  0.0000000  0.0000000  1.0000000 )


      isym =  8      90 deg rotation - cart. axis [0,0,1]        

 cryst.   s( 8) = (     1          0         -1      )
                  (     1          0          0      )
                  (     1         -1          0      )

 cart.    s( 8) = (  0.0000000 -1.0000000  0.0000000 )
                  (  1.0000000  0.0000000  0.0000000 )
                  (  0.0000000  0.0000000  1.0000000 )


      isym =  9     180 deg rotation - cart. axis [1,0,1]        

 cryst.   s( 9) = (    -1          0          0      )
                  (     0          0         -1      )
                  (     0         -1          0      )

 cart.    s( 9) = (  0.0000000  0.0000000  1.0000000 )
                  (  0.0000000 -1.0000000  0.0000000 )
                  (  1.0000000  0.0000000  0.0000000 )


      isym = 10     180 deg rotation - cart. axis [-1,0,1]       

 cryst.   s(10) = (     1          0          0      )
                  (     1         -1          0      )
                  (     1          0         -1      )

 cart.    s(10) = (  0.0000000  0.0000000 -1.0000000 )
                  (  0.0000000 -1.0000000  0.0000000 )
                  ( -1.0000000  0.0000000  0.0000000 )


      isym = 11      90 deg rotation - cart. axis [0,1,0]        

 cryst.   s(11) = (     0          1         -1      )
                  (    -1          1          0      )
                  (     0          1          0      )

 cart.    s(11) = (  0.0000000  0.0000000  1.0000000 )
                  (  0.0000000  1.0000000  0.0000000 )
                  ( -1.0000000  0.0000000  0.0000000 )


      isym = 12      90 deg rotation - cart. axis [0,-1,0]       

 cryst.   s(12) = (     0         -1          1      )
                  (     0          0          1      )
                  (    -1          0          1      )

 cart.    s(12) = (  0.0000000  0.0000000 -1.0000000 )
                  (  0.0000000  1.0000000  0.0000000 )
                  (  1.0000000  0.0000000  0.0000000 )


      isym = 13     180 deg rotation - cart. axis [0,1,1]        

 cryst.   s(13) = (    -1          1          0      )
                  (     0          1          0      )
                  (     0          1         -1      )

 cart.    s(13) = ( -1.0000000  0.0000000  0.0000000 )
                  (  0.0000000  0.0000000  1.0000000 )
                  (  0.0000000  1.0000000  0.0000000 )


      isym = 14     180 deg rotation - cart. axis [0,1,-1]       

 cryst.   s(14) = (     0          0         -1      )
                  (     0         -1          0      )
                  (    -1          0          0      )

 cart.    s(14) = ( -1.0000000  0.0000000  0.0000000 )
                  (  0.0000000  0.0000000 -1.0000000 )
                  (  0.0000000 -1.0000000  0.0000000 )


      isym = 15      90 deg rotation - cart. axis [-1,0,0]       

 cryst.   s(15) = (     0          0          1      )
                  (    -1          0          1      )
                  (     0         -1          1      )

 cart.    s(15) = (  1.0000000  0.0000000  0.0000000 )
                  (  0.0000000  0.0000000  1.0000000 )
                  (  0.0000000 -1.0000000  0.0000000 )


      isym = 16      90 deg rotation - cart. axis [1,0,0]        

 cryst.   s(16) = (     1         -1          0      )
                  (     1          0         -1      )
                  (     1          0          0      )

 cart.    s(16) = (  1.0000000  0.0000000  0.0000000 )
                  (  0.0000000  0.0000000 -1.0000000 )
                  (  0.0000000  1.0000000  0.0000000 )


      isym = 17     120 deg rotation - cart. axis [-1,-1,-1]     

 cryst.   s(17) = (    -1          0          1      )
                  (    -1          1          0      )
                  (    -1          0          0      )

 cart.    s(17) = (  0.0000000  1.0000000  0.0000000 )
                  (  0.0000000  0.0000000  1.0000000 )
                  (  1.0000000  0.0000000  0.0000000 )


      isym = 18     120 deg rotation - cart. axis [-1,1,1]       

 cryst.   s(18) = (     0          1          0      )
                  (     0          0          1      )
                  (     1          0          0      )

 cart.    s(18) = (  0.0000000 -1.0000000  0.0000000 )
                  (  0.0000000  0.0000000  1.0000000 )
                  ( -1.0000000  0.0000000  0.0000000 )


      isym = 19     120 deg rotation - cart. axis [1,1,-1]       

 cryst.   s(19) = (     1          0         -1      )
                  (     0          0         -1      )
                  (     0          1         -1      )

 cart.    s(19) = (  0.0000000  1.0000000  0.0000000 )
                  (  0.0000000  0.0000000 -1.0000000 )
                  ( -1.0000000  0.0000000  0.0000000 )


      isym = 20     120 deg rotation - cart. axis [1,-1,1]       

 cryst.   s(20) = (     0         -1          0      )
                  (     1         -1          0      )
                  (     0         -1          1      )

 cart.    s(20) = (  0.0000000 -1.0000000  0.0000000 )
                  (  0.0000000  0.0000000 -1.0000000 )
                  (  1.0000000  0.0000000  0.0000000 )


      isym = 21     120 deg rotation - cart. axis [1,1,1]        

 cryst.   s(21) = (     0          0         -1      )
                  (     0          1         -1      )
                  (     1          0         -1      )

 cart.    s(21) = (  0.0000000  0.0000000  1.0000000 )
                  (  1.0000000  0.0000000  0.0000000 )
                  (  0.0000000  1.0000000  0.0000000 )


      isym = 22     120 deg rotation - cart. axis [-1,1,-1]      

 cryst.   s(22) = (    -1          1          0      )
                  (    -1          0          0      )
                  (    -1          0          1      )

 cart.    s(22) = (  0.0000000  0.0000000  1.0000000 )
                  ( -1.0000000  0.0000000  0.0000000 )
                  (  0.0000000 -1.0000000  0.0000000 )


      isym = 23     120 deg rotation - cart. axis [1,-1,-1]      

 cryst.   s(23) = (     0          0          1      )
                  (     1          0          0      )
                  (     0          1          0      )

 cart.    s(23) = (  0.0000000  0.0000000 -1.0000000 )
                  ( -1.0000000  0.0000000  0.0000000 )
                  (  0.0000000  1.0000000  0.0000000 )


      isym = 24     120 deg rotation - cart. axis [-1,-1,1]      

 cryst.   s(24) = (     1         -1          0      )
                  (     0         -1          1      )
                  (     0         -1          0      )

 cart.    s(24) = (  0.0000000  0.0000000 -1.0000000 )
                  (  1.0000000  0.0000000  0.0000000 )
                  (  0.0000000 -1.0000000  0.0000000 )


      isym = 25     inversion                                    

 cryst.   s(25) = (    -1          0          0      )
                  (     0         -1          0      )
                  (     0          0         -1      )

 cart.    s(25) = ( -1.0000000  0.0000000  0.0000000 )
                  (  0.0000000 -1.0000000  0.0000000 )
                  (  0.0000000  0.0000000 -1.0000000 )


      isym = 26     inv. 180 deg rotation - cart. axis [0,0,1]   

 cryst.   s(26) = (     0         -1          1      )
                  (    -1          0          1      )
                  (     0          0          1      )

 cart.    s(26) = (  1.0000000  0.0000000  0.0000000 )
                  (  0.0000000  1.0000000  0.0000000 )
                  (  0.0000000  0.0000000 -1.0000000 )


      isym = 27     inv. 180 deg rotation - cart. axis [0,1,0]   

 cryst.   s(27) = (     1          0          0      )
                  (     1          0         -1      )
                  (     1         -1          0      )

 cart.    s(27) = (  1.0000000  0.0000000  0.0000000 )
                  (  0.0000000 -1.0000000  0.0000000 )
                  (  0.0000000  0.0000000  1.0000000 )


      isym = 28     inv. 180 deg rotation - cart. axis [1,0,0]   

 cryst.   s(28) = (     0          1         -1      )
                  (     0          1          0      )
                  (    -1          1          0      )

 cart.    s(28) = ( -1.0000000  0.0000000  0.0000000 )
                  (  0.0000000  1.0000000  0.0000000 )
                  (  0.0000000  0.0000000  1.0000000 )


      isym = 29     inv. 180 deg rotation - cart. axis [1,1,0]   

 cryst.   s(29) = (     0          1          0      )
                  (     1          0          0      )
                  (     0          0          1      )

 cart.    s(29) = (  0.0000000 -1.0000000  0.0000000 )
                  ( -1.0000000  0.0000000  0.0000000 )
                  (  0.0000000  0.0000000  1.0000000 )


      isym = 30     inv. 180 deg rotation - cart. axis [1,-1,0]  

 cryst.   s(30) = (     1          0         -1      )
                  (     0          1         -1      )
                  (     0          0         -1      )

 cart.    s(30) = (  0.0000000  1.0000000  0.0000000 )
                  (  1.0000000  0.0000000  0.0000000 )
                  (  0.0000000  0.0000000  1.0000000 )


      isym = 31     inv.  90 deg rotation - cart. axis [0,0,-1]  

 cryst.   s(31) = (     0         -1          0      )
                  (     0         -1          1      )
                  (     1         -1          0      )

 cart.    s(31) = (  0.0000000 -1.0000000  0.0000000 )
                  (  1.0000000  0.0000000  0.0000000 )
                  (  0.0000000  0.0000000 -1.0000000 )


      isym = 32     inv.  90 deg rotation - cart. axis [0,0,1]   

 cryst.   s(32) = (    -1          0          1      )
                  (    -1          0          0      )
                  (    -1          1          0      )

 cart.    s(32) = (  0.0000000  1.0000000  0.0000000 )
                  ( -1.0000000  0.0000000  0.0000000 )
                  (  0.0000000  0.0000000 -1.0000000 )


      isym = 33     inv. 180 deg rotation - cart. axis [1,0,1]   

 cryst.   s(33) = (     1          0          0      )
                  (     0          0          1      )
                  (     0          1          0      )

 cart.    s(33) = (  0.0000000  0.0000000 -1.0000000 )
                  (  0.0000000  1.0000000  0.0000000 )
                  ( -1.0000000  0.0000000  0.0000000 )


      isym = 34     inv. 180 deg rotation - cart. axis [-1,0,1]  

 cryst.   s(34) = (    -1          0          0      )
                  (    -1          1          0      )
                  (    -1          0          1      )

 cart.    s(34) = (  0.0000000  0.0000000  1.0000000 )
                  (  0.0000000  1.0000000  0.0000000 )
                  (  1.0000000  0.0000000  0.0000000 )


      isym = 35     inv.  90 deg rotation - cart. axis [0,1,0]   

 cryst.   s(35) = (     0         -1          1      )
                  (     1         -1          0      )
                  (     0         -1          0      )

 cart.    s(35) = (  0.0000000  0.0000000 -1.0000000 )
                  (  0.0000000 -1.0000000  0.0000000 )
                  (  1.0000000  0.0000000  0.0000000 )


      isym = 36     inv.  90 deg rotation - cart. axis [0,-1,0]  

 cryst.   s(36) = (     0          1         -1      )
                  (     0          0         -1      )
                  (     1          0         -1      )

 cart.    s(36) = (  0.0000000  0.0000000  1.0000000 )
                  (  0.0000000 -1.0000000  0.0000000 )
                  ( -1.0000000  0.0000000  0.0000000 )


      isym = 37     inv. 180 deg rotation - cart. axis [0,1,1]   

 cryst.   s(37) = (     1         -1          0      )
                  (     0         -1          0      )
                  (     0         -1          1      )

 cart.    s(37) = (  1.0000000  0.0000000  0.0000000 )
                  (  0.0000000  0.0000000 -1.0000000 )
                  (  0.0000000 -1.0000000  0.0000000 )


      isym = 38     inv. 180 deg rotation - cart. axis [0,1,-1]  

 cryst.   s(38) = (     0          0          1      )
                  (     0          1          0      )
                  (     1          0          0      )

 cart.    s(38) = (  1.0000000  0.0000000  0.0000000 )
                  (  0.0000000  0.0000000  1.0000000 )
                  (  0.0000000  1.0000000  0.0000000 )


      isym = 39     inv.  90 deg rotation - cart. axis [-1,0,0]  

 cryst.   s(39) = (     0          0         -1      )
                  (     1          0         -1      )
                  (     0          1         -1      )

 cart.    s(39) = ( -1.0000000  0.0000000  0.0000000 )
                  (  0.0000000  0.0000000 -1.0000000 )
                  (  0.0000000  1.0000000  0.0000000 )


      isym = 40     inv.  90 deg rotation - cart. axis [1,0,0]   

 cryst.   s(40) = (    -1          1          0      )
                  (    -1          0          1      )
                  (    -1          0          0      )

 cart.    s(40) = ( -1.0000000  0.0000000  0.0000000 )
                  (  0.0000000  0.0000000  1.0000000 )
                  (  0.0000000 -1.0000000  0.0000000 )


      isym = 41     inv. 120 deg rotation - cart. axis [-1,-1,-1]

 cryst.   s(41) = (     1          0         -1      )
                  (     1         -1          0      )
                  (     1          0          0      )

 cart.    s(41) = (  0.0000000 -1.0000000  0.0000000 )
                  (  0.0000000  0.0000000 -1.0000000 )
                  ( -1.0000000  0.0000000  0.0000000 )


      isym = 42     inv. 120 deg rotation - cart. axis [-1,1,1]  

 cryst.   s(42) = (     0         -1          0      )
                  (     0          0         -1      )
                  (    -1          0          0      )

 cart.    s(42) = (  0.0000000  1.0000000  0.0000000 )
                  (  0.0000000  0.0000000 -1.0000000 )
                  (  1.0000000  0.0000000  0.0000000 )


      isym = 43     inv. 120 deg rotation - cart. axis [1,1,-1]  

 cryst.   s(43) = (    -1          0          1      )
                  (     0          0          1      )
                  (     0         -1          1      )

 cart.    s(43) = (  0.0000000 -1.0000000  0.0000000 )
                  (  0.0000000  0.0000000  1.0000000 )
                  (  1.0000000  0.0000000  0.0000000 )


      isym = 44     inv. 120 deg rotation - cart. axis [1,-1,1]  

 cryst.   s(44) = (     0          1          0      )
                  (    -1          1          0      )
                  (     0          1         -1      )

 cart.    s(44) = (  0.0000000  1.0000000  0.0000000 )
                  (  0.0000000  0.0000000  1.0000000 )
                  ( -1.0000000  0.0000000  0.0000000 )


      isym = 45     inv. 120 deg rotation - cart. axis [1,1,1]   

 cryst.   s(45) = (     0          0          1      )
                  (     0         -1          1      )
                  (    -1          0          1      )

 cart.    s(45) = (  0.0000000  0.0000000 -1.0000000 )
                  ( -1.0000000  0.0000000  0.0000000 )
                  (  0.0000000 -1.0000000  0.0000000 )


      isym = 46     inv. 120 deg rotation - cart. axis [-1,1,-1] 

 cryst.   s(46) = (     1         -1          0      )
                  (     1          0          0      )
                  (     1          0         -1      )

 cart.    s(46) = (  0.0000000  0.0000000 -1.0000000 )
                  (  1.0000000  0.0000000  0.0000000 )
                  (  0.0000000  1.0000000  0.0000000 )


      isym = 47     inv. 120 deg rotation - cart. axis [1,-1,-1] 

 cryst.   s(47) = (     0          0         -1      )
                  (    -1          0          0      )
                  (     0         -1          0      )

 cart.    s(47) = (  0.0000000  0.0000000  1.0000000 )
                  (  1.0000000  0.0000000  0.0000000 )
                  (  0.0000000 -1.0000000  0.0000000 )


      isym = 48     inv. 120 deg rotation - cart. axis [-1,-1,1] 

 cryst.   s(48) = (    -1          1          0      )
                  (     0          1         -1      )
                  (     0          1          0      )

 cart.    s(48) = (  0.0000000  0.0000000  1.0000000 )
                  ( -1.0000000  0.0000000  0.0000000 )
                  (  0.0000000  1.0000000  0.0000000 )


     point group O_h (m-3m) 
     there are 10 classes
     the character table:

       E     8C3   3C2   6C4   6C2'  i     8S6   3s_h  6S4   6s_d 
A_1g   1.00  1.00  1.00  1.00  1.00  1.00  1.00  1.00  1.00  1.00
A_2g   1.00  1.00  1.00 -1.00 -1.00  1.00  1.00  1.00 -1.00 -1.00
E_g    2.00 -1.00  2.00  0.00  0.00  2.00 -1.00  2.00  0.00  0.00
T_1g   3.00  0.00 -1.00  1.00 -1.00  3.00  0.00 -1.00  1.00 -1.00
T_2g   3.00  0.00 -1.00 -1.00  1.00  3.00  0.00 -1.00 -1.00  1.00
A_1u   1.00  1.00  1.00  1.00  1.00 -1.00 -1.00 -1.00 -1.00 -1.00
A_2u   1.00  1.00  1.00 -1.00 -1.00 -1.00 -1.00 -1.00  1.00  1.00
E_u    2.00 -1.00  2.00  0.00  0.00 -2.00  1.00 -2.00  0.00  0.00
T_1u   3.00  0.00 -1.00  1.00 -1.00 -3.00  0.00  1.00 -1.00  1.00
T_2u   3.00  0.00 -1.00 -1.00  1.00 -3.00  0.00  1.00  1.00 -1.00

     the symmetry operations in each class and the name of the first element:

     E        1
          identity                                               
     8C3     17   19   20   18   24   21   22   23
          120 deg rotation - cart. axis [-1,-1,-1]               
     3C2      2    4    3
          180 deg rotation - cart. axis [0,0,1]                  
     6C4      7    8   15   16   12   11
           90 deg rotation - cart. axis [0,0,-1]                 
     6C2'     5    6   14   13   10    9
          180 deg rotation - cart. axis [1,1,0]                  
     i       25
          inversion                                              
     8S6     41   43   44   42   48   45   46   47
          inv. 120 deg rotation - cart. axis [-1,-1,-1]          
     3s_h    26   28   27
          inv. 180 deg rotation - cart. axis [0,0,1]             
     6S4     31   32   39   40   36   35
          inv.  90 deg rotation - cart. axis [0,0,-1]            
     6s_d    29   30   38   37   34   33
          inv. 180 deg rotation - cart. axis [1,1,0]             

   Cartesian axes

     site n.     atom                  positions (alat units)
         1           Pb  tau(   1) = (   0.0000000   0.0000000   0.0000000  )

   Crystallographic axes

     site n.     atom                  positions (cryst. coord.)
         1           Pb  tau(   1) = (  0.0000000  0.0000000  0.0000000  )

     number of k points=    29  Methfessel-Paxton smearing, width (Ry)=  0.1000
                       cart. coord. in units 2pi/alat
        k(    1) = (   0.0000000   0.0000000   0.0000000), wk =   0.0039062
        k(    2) = (  -0.1250000   0.1250000  -0.1250000), wk =   0.0312500
        k(    3) = (  -0.2500000   0.2500000  -0.2500000), wk =   0.0312500
        k(    4) = (  -0.3750000   0.3750000  -0.3750000), wk =   0.0312500
        k(    5) = (   0.5000000  -0.5000000   0.5000000), wk =   0.0156250
        k(    6) = (   0.0000000   0.2500000   0.0000000), wk =   0.0234375
        k(    7) = (  -0.1250000   0.3750000  -0.1250000), wk =   0.0937500
        k(    8) = (  -0.2500000   0.5000000  -0.2500000), wk =   0.0937500
        k(    9) = (   0.6250000  -0.3750000   0.6250000), wk =   0.0937500
        k(   10) = (   0.5000000  -0.2500000   0.5000000), wk =   0.0937500
        k(   11) = (   0.3750000  -0.1250000   0.3750000), wk =   0.0937500
        k(   12) = (   0.2500000   0.0000000   0.2500000), wk =   0.0468750
        k(   13) = (   0.0000000   0.5000000   0.0000000), wk =   0.0234375
        k(   14) = (  -0.1250000   0.6250000  -0.1250000), wk =   0.0937500
        k(   15) = (   0.7500000  -0.2500000   0.7500000), wk =   0.0937500
        k(   16) = (   0.6250000  -0.1250000   0.6250000), wk =   0.0937500
        k(   17) = (   0.5000000   0.0000000   0.5000000), wk =   0.0468750
        k(   18) = (   0.0000000   0.7500000   0.0000000), wk =   0.0234375
        k(   19) = (   0.8750000  -0.1250000   0.8750000), wk =   0.0937500
        k(   20) = (   0.7500000   0.0000000   0.7500000), wk =   0.0468750
        k(   21) = (   0.0000000  -1.0000000   0.0000000), wk =   0.0117188
        k(   22) = (  -0.2500000   0.5000000   0.0000000), wk =   0.0937500
        k(   23) = (   0.6250000  -0.3750000   0.8750000), wk =   0.1875000
        k(   24) = (   0.5000000  -0.2500000   0.7500000), wk =   0.0937500
        k(   25) = (   0.7500000  -0.2500000   1.0000000), wk =   0.0937500
        k(   26) = (   0.6250000  -0.1250000   0.8750000), wk =   0.1875000
        k(   27) = (   0.5000000   0.0000000   0.7500000), wk =   0.0937500
        k(   28) = (  -0.2500000  -1.0000000   0.0000000), wk =   0.0468750
        k(   29) = (  -0.5000000  -1.0000000   0.0000000), wk =   0.0234375

                       cryst. coord.
        k(    1) = (   0.0000000   0.0000000   0.0000000), wk =   0.0039062
        k(    2) = (   0.0000000   0.0000000   0.1250000), wk =   0.0312500
        k(    3) = (   0.0000000   0.0000000   0.2500000), wk =   0.0312500
        k(    4) = (   0.0000000   0.0000000   0.3750000), wk =   0.0312500
        k(    5) = (   0.0000000   0.0000000  -0.5000000), wk =   0.0156250
        k(    6) = (   0.0000000   0.1250000   0.1250000), wk =   0.0234375
        k(    7) = (   0.0000000   0.1250000   0.2500000), wk =   0.0937500
        k(    8) = (   0.0000000   0.1250000   0.3750000), wk =   0.0937500
        k(    9) = (   0.0000000   0.1250000  -0.5000000), wk =   0.0937500
        k(   10) = (   0.0000000   0.1250000  -0.3750000), wk =   0.0937500
        k(   11) = (   0.0000000   0.1250000  -0.2500000), wk =   0.0937500
        k(   12) = (   0.0000000   0.1250000  -0.1250000), wk =   0.0468750
        k(   13) = (   0.0000000   0.2500000   0.2500000), wk =   0.0234375
        k(   14) = (   0.0000000   0.2500000   0.3750000), wk =   0.0937500
        k(   15) = (   0.0000000   0.2500000  -0.5000000), wk =   0.0937500
        k(   16) = (   0.0000000   0.2500000  -0.3750000), wk =   0.0937500
        k(   17) = (   0.0000000   0.2500000  -0.2500000), wk =   0.0468750
        k(   18) = (   0.0000000   0.3750000   0.3750000), wk =   0.0234375
        k(   19) = (   0.0000000   0.3750000  -0.5000000), wk =   0.0937500
        k(   20) = (   0.0000000   0.3750000  -0.3750000), wk =   0.0468750
        k(   21) = (   0.0000000  -0.5000000  -0.5000000), wk =   0.0117188
        k(   22) = (   0.1250000   0.2500000   0.3750000), wk =   0.0937500
        k(   23) = (   0.1250000   0.2500000  -0.5000000), wk =   0.1875000
        k(   24) = (   0.1250000   0.2500000  -0.3750000), wk =   0.0937500
        k(   25) = (   0.1250000   0.3750000  -0.5000000), wk =   0.0937500
        k(   26) = (   0.1250000   0.3750000  -0.3750000), wk =   0.1875000
        k(   27) = (   0.1250000   0.3750000  -0.2500000), wk =   0.0937500
        k(   28) = (   0.1250000  -0.5000000  -0.3750000), wk =   0.0468750
        k(   29) = (   0.2500000  -0.5000000  -0.2500000), wk =   0.0234375

     Dense  grid:    45767 G-vectors     FFT dimensions: (  50,  50,  50)

     Smooth grid:    16361 G-vectors     FFT dimensions: (  36,  36,  36)

     Dynamical RAM for                 wfc:       0.34 MB

     Dynamical RAM for     wfc (w. buffer):      10.20 MB

     Dynamical RAM for           str. fact:       0.70 MB

     Dynamical RAM for           local pot:       0.00 MB

     Dynamical RAM for          nlocal pot:       0.56 MB

     Dynamical RAM for                qrad:       1.90 MB

     Dynamical RAM for          rho,v,vnew:       4.96 MB

     Dynamical RAM for               rhoin:       1.65 MB

     Dynamical RAM for            rho*nmix:      11.17 MB

     Dynamical RAM for           G-vectors:       2.74 MB

     Dynamical RAM for          h,s,v(r/c):       0.02 MB

     Dynamical RAM for          <psi|beta>:       0.00 MB

     Dynamical RAM for                 psi:       0.68 MB

     Dynamical RAM for                hpsi:       0.68 MB

     Dynamical RAM for                spsi:       0.68 MB

     Dynamical RAM for      wfcinit/wfcrot:       0.68 MB

     Dynamical RAM for           addusdens:     130.59 MB

     Dynamical RAM for          addusforce:     130.94 MB

     Dynamical RAM for         addusstress:     140.37 MB

     Estimated static dynamical RAM per process >      28.87 MB

     Estimated max dynamical RAM per process >     180.41 MB

     Initial potential from superposition of free atoms

     starting charge   13.99789, renormalised to   14.00000
     Starting wfcs are    9 randomized atomic wfcs +    2 random wfcs
     Checking if some PAW data can be deallocated... 

     total cpu time spent up to now is        1.8 secs

     Self-consistent Calculation

     iteration #  1     ecut=    70.00 Ry     beta= 0.70
     Davidson diagonalization with overlap

---- Real-time Memory Report at c_bands before calling an iterative solver
           187 MiB given to the printing process from OS
             0 MiB allocation reported by mallinfo(arena+hblkhd)
          5103 MiB available memory on the node where the printing process lives
------------------
     ethr =  1.00E-02,  avg # of iterations =  4.2

     Threshold (ethr) on eigenvalues was too large:
     Diagonalizing with lowered threshold

     Davidson diagonalization with overlap

---- Real-time Memory Report at c_bands before calling an iterative solver
           201 MiB given to the printing process from OS
             0 MiB allocation reported by mallinfo(arena+hblkhd)
          5091 MiB available memory on the node where the printing process lives
------------------
     ethr =  1.73E-05,  avg # of iterations =  7.1

     total cpu time spent up to now is        6.1 secs

     total energy              =    -859.43124902 Ry
     estimated scf accuracy    <       0.00243293 Ry

     iteration #  2     ecut=    70.00 Ry     beta= 0.70
     Davidson diagonalization with overlap

---- Real-time Memory Report at c_bands before calling an iterative solver
           208 MiB given to the printing process from OS
             0 MiB allocation reported by mallinfo(arena+hblkhd)
          5086 MiB available memory on the node where the printing process lives
------------------
     ethr =  1.74E-05,  avg # of iterations =  2.0

     total cpu time spent up to now is        8.0 secs

     total energy              =    -859.43171545 Ry
     estimated scf accuracy    <       0.00019041 Ry

     iteration #  3     ecut=    70.00 Ry     beta= 0.70
     Davidson diagonalization with overlap

---- Real-time Memory Report at c_bands before calling an iterative solver
           210 MiB given to the printing process from OS
             0 MiB allocation reported by mallinfo(arena+hblkhd)
          5083 MiB available memory on the node where the printing process lives
------------------
     ethr =  1.36E-06,  avg # of iterations =  3.4

     total cpu time spent up to now is       10.4 secs

     total energy              =    -859.43175311 Ry
     estimated scf accuracy    <       0.00000758 Ry

     iteration #  4     ecut=    70.00 Ry     beta= 0.70
     Davidson diagonalization with overlap

---- Real-time Memory Report at c_bands before calling an iterative solver
           210 MiB given to the printing process from OS
             0 MiB allocation reported by mallinfo(arena+hblkhd)
          5083 MiB available memory on the node where the printing process lives
------------------
     ethr =  5.41E-08,  avg # of iterations =  2.0

     total cpu time spent up to now is       12.1 secs

     total energy              =    -859.43175395 Ry
     estimated scf accuracy    <       0.00000038 Ry

     iteration #  5     ecut=    70.00 Ry     beta= 0.70
     Davidson diagonalization with overlap

---- Real-time Memory Report at c_bands before calling an iterative solver
           211 MiB given to the printing process from OS
             0 MiB allocation reported by mallinfo(arena+hblkhd)
          5083 MiB available memory on the node where the printing process lives
------------------
     ethr =  2.74E-09,  avg # of iterations =  2.1

     total cpu time spent up to now is       14.3 secs

     total energy              =    -859.43175412 Ry
     estimated scf accuracy    <       0.00000008 Ry

     iteration #  6     ecut=    70.00 Ry     beta= 0.70
     Davidson diagonalization with overlap

---- Real-time Memory Report at c_bands before calling an iterative solver
           211 MiB given to the printing process from OS
             0 MiB allocation reported by mallinfo(arena+hblkhd)
          5082 MiB available memory on the node where the printing process lives
------------------
     ethr =  5.61E-10,  avg # of iterations =  2.0

     total cpu time spent up to now is       16.0 secs

     End of self-consistent calculation

          k = 0.0000 0.0000 0.0000 (  2085 PWs)   bands (ev):

    -5.9844  -5.9844  -5.9844  -5.8435  -5.8435  -0.7424  18.4399  18.4399
    18.4399  21.0728  22.3220

     occupation numbers 
     1.0000   1.0000   1.0000   1.0000   1.0000   1.0000  -0.0000  -0.0000
    -0.0000  -0.0000  -0.0000

          k =-0.1250 0.1250-0.1250 (  2028 PWs)   bands (ev):

    -5.9850  -5.9641  -5.9641  -5.8427  -5.8427  -0.4416  15.6317  18.0852
    18.0852  20.5177  24.1344

     occupation numbers 
     1.0000   1.0000   1.0000   1.0000   1.0000   1.0000  -0.0000  -0.0000
    -0.0000  -0.0000  -0.0000

          k =-0.2500 0.2500-0.2500 (  2027 PWs)   bands (ev):

    -5.9926  -5.9483  -5.9483  -5.8076  -5.8076   0.4556  11.7670  17.3968
    17.3968  20.1085  22.7036

     occupation numbers 
     1.0000   1.0000   1.0000   1.0000   1.0000   1.0000   0.1194  -0.0000
    -0.0000  -0.0000  -0.0000

          k =-0.3750 0.3750-0.3750 (  2024 PWs)   bands (ev):

    -6.0065  -5.9636  -5.9636  -5.7397  -5.7397   1.8470   8.4821  16.8289
    16.8289  20.0850  21.3302

     occupation numbers 
     1.0000   1.0000   1.0000   1.0000   1.0000   1.0000   1.0111  -0.0000
    -0.0000  -0.0000  -0.0000

          k = 0.5000-0.5000 0.5000 (  2036 PWs)   bands (ev):

    -6.0138  -5.9732  -5.9732  -5.7081  -5.7081   2.8836   6.8033  16.6140
    16.6140  20.4733  20.4773

     occupation numbers 
     1.0000   1.0000   1.0000   1.0000   1.0000   1.0000   1.0000  -0.0000
    -0.0000  -0.0000  -0.0000

          k = 0.0000 0.2500 0.0000 (  2029 PWs)   bands (ev):

    -6.0084  -5.9411  -5.9411  -5.8692  -5.8253  -0.3416  16.4217  17.0256
    17.0256  19.9347  22.2218

     occupation numbers 
     1.0000   1.0000   1.0000   1.0000   1.0000   1.0000  -0.0000  -0.0000
    -0.0000  -0.0000  -0.0000

          k =-0.1250 0.3750-0.1250 (  2022 PWs)   bands (ev):

    -6.0182  -5.9226  -5.9092  -5.8667  -5.7919   0.3573  13.0955  16.1228
    16.5374  19.9751  21.1832

     occupation numbers 
     1.0000   1.0000   1.0000   1.0000   1.0000   1.0000  -0.0278  -0.0000
    -0.0000  -0.0000  -0.0000

          k =-0.2500 0.5000-0.2500 (  2008 PWs)   bands (ev):

    -6.0141  -5.9467  -5.9176  -5.8083  -5.7307   1.5995   9.6858  15.5292
    15.6747  19.2657  22.6889

     occupation numbers 
     1.0000   1.0000   1.0000   1.0000   1.0000   1.0000   1.0262  -0.0000
    -0.0000  -0.0000  -0.0000

          k = 0.6250-0.3750 0.6250 (  2021 PWs)   bands (ev):

    -6.0071  -5.9627  -5.9343  -5.7540  -5.7058   2.9352   7.3317  14.6339
    15.8002  19.1349  22.4418

     occupation numbers 
     1.0000   1.0000   1.0000   1.0000   1.0000   1.0000   1.0004  -0.0006
    -0.0000  -0.0000  -0.0000

          k = 0.5000-0.2500 0.5000 (  2024 PWs)   bands (ev):

    -5.9902  -5.9677  -5.9358  -5.7463  -5.7365   2.5557   7.9255  14.1895
    16.5081  19.6349  21.9645

     occupation numbers 
     1.0000   1.0000   1.0000   1.0000   1.0000   1.0000   1.0027  -0.0027
    -0.0000  -0.0000  -0.0000

          k = 0.3750-0.1250 0.3750 (  2018 PWs)   bands (ev):

    -5.9833  -5.9530  -5.9206  -5.8281  -5.7635   1.1333  10.7573  14.3400
    17.6182  20.7247  21.7712

     occupation numbers 
     1.0000   1.0000   1.0000   1.0000   1.0000   1.0000   0.6835  -0.0017
    -0.0000  -0.0000  -0.0000

          k = 0.2500 0.0000 0.2500 (  2027 PWs)   bands (ev):

    -5.9889  -5.9422  -5.9354  -5.8646  -5.8096   0.0587  13.9599  15.4350
    18.4723  21.3051  22.4424

     occupation numbers 
     1.0000   1.0000   1.0000   1.0000   1.0000   1.0000  -0.0051  -0.0000
    -0.0000  -0.0000  -0.0000

          k = 0.0000 0.5000 0.0000 (  2020 PWs)   bands (ev):

    -6.0666  -5.9410  -5.8339  -5.8339  -5.7815   0.8532  13.2683  14.9929
    14.9929  18.6736  18.7400

     occupation numbers 
     1.0000   1.0000   1.0000   1.0000   1.0000   1.0000  -0.0220  -0.0002
    -0.0002  -0.0000  -0.0000

          k =-0.1250 0.6250-0.1250 (  2026 PWs)   bands (ev):

    -6.0741  -5.9708  -5.8213  -5.7900  -5.7264   1.9027  10.8503  13.5972
    14.3889  17.9802  19.8369

     occupation numbers 
     1.0000   1.0000   1.0000   1.0000   1.0000   1.0000   0.6290  -0.0121
    -0.0015  -0.0000  -0.0000

          k = 0.7500-0.2500 0.7500 (  2034 PWs)   bands (ev):

    -6.0517  -5.9473  -5.8398  -5.7922  -5.6998   3.2227   8.5643  12.0491
    14.4418  17.8920  22.7386

     occupation numbers 
     1.0000   1.0000   1.0000   1.0000   1.0000   1.0000   1.0131   0.0312
    -0.0012  -0.0000  -0.0000

          k = 0.6250-0.1250 0.6250 (  2022 PWs)   bands (ev):

    -6.0222  -5.8972  -5.8537  -5.8133  -5.7425   3.4981   8.2459  11.1272
    15.1637  18.3304  24.8027

     occupation numbers 
     1.0000   1.0000   1.0000   1.0000   1.0000   1.0000   1.0064   0.4585
    -0.0001  -0.0000  -0.0000

          k = 0.5000 0.0000 0.5000 (  2017 PWs)   bands (ev):

    -5.9841  -5.9341  -5.8611  -5.8222  -5.7756   2.2991   9.9233  11.4640
    16.4112  19.2900  24.0070

     occupation numbers 
     1.0000   1.0000   1.0000   1.0000   1.0000   1.0000   0.9986   0.2608
    -0.0000  -0.0000  -0.0000

          k = 0.0000 0.7500 0.0000 (  2028 PWs)   bands (ev):

    -6.1246  -6.0231  -5.7374  -5.7217  -5.7217   2.7365   9.8762  13.5796
    13.5796  16.9113  17.9176

     occupation numbers 
     1.0000   1.0000   1.0000   1.0000   1.0000   1.0000   1.0059  -0.0125
    -0.0125  -0.0000  -0.0000

          k = 0.8750-0.1250 0.8750 (  2032 PWs)   bands (ev):

    -6.1141  -6.0280  -5.7479  -5.7136  -5.6884   3.8323   8.5503  11.8100
    13.4403  17.0890  19.2273

     occupation numbers 
     1.0000   1.0000   1.0000   1.0000   1.0000   1.0000   1.0128   0.1032
    -0.0165  -0.0000  -0.0000

          k = 0.7500 0.0000 0.7500 (  2045 PWs)   bands (ev):

    -6.0699  -5.9549  -5.7783  -5.7754  -5.7158   4.2095   8.7309   9.7864
    14.0063  17.5028  22.4565

     occupation numbers 
     1.0000   1.0000   1.0000   1.0000   1.0000   1.0000   1.0180   1.0172
    -0.0045  -0.0000  -0.0000

          k = 0.0000-1.0000 0.0000 (  2044 PWs)   bands (ev):

    -6.1486  -6.0597  -5.7191  -5.6737  -5.6737   4.2924   7.7420  13.0816
    13.0816  16.3844  17.6701

     occupation numbers 
     1.0000   1.0000   1.0000   1.0000   1.0000   1.0000   1.0015  -0.0283
    -0.0283  -0.0000  -0.0000

          k =-0.2500 0.5000 0.0000 (  2024 PWs)   bands (ev):

    -6.0215  -5.9397  -5.8780  -5.8382  -5.7571   1.2346  11.6460  13.4551
    16.0607  20.1672  20.7554

     occupation numbers 
     1.0000   1.0000   1.0000   1.0000   1.0000   1.0000   0.1705  -0.0160
    -0.0000  -0.0000  -0.0000

          k = 0.6250-0.3750 0.8750 (  2025 PWs)   bands (ev):

    -5.9969  -5.9611  -5.8763  -5.7971  -5.7316   2.5501   9.1660  12.5289
    14.8589  19.9594  22.2264

     occupation numbers 
     1.0000   1.0000   1.0000   1.0000   1.0000   1.0000   1.0320  -0.0315
    -0.0003  -0.0000  -0.0000

          k = 0.5000-0.2500 0.7500 (  2026 PWs)   bands (ev):

    -5.9873  -5.9680  -5.8613  -5.8023  -5.7152   3.4667   7.7237  12.4207
    14.3069  19.8646  22.0208

     occupation numbers 
     1.0000   1.0000   1.0000   1.0000   1.0000   1.0000   1.0014  -0.0251
    -0.0019  -0.0000  -0.0000

          k = 0.7500-0.2500 1.0000 (  2035 PWs)   bands (ev):

    -6.0662  -5.9929  -5.8179  -5.7270  -5.7233   3.0192   9.6354  12.1202
    13.0524  18.9808  19.9343

     occupation numbers 
     1.0000   1.0000   1.0000   1.0000   1.0000   1.0000   1.0294   0.0155
    -0.0292  -0.0000  -0.0000

          k = 0.6250-0.1250 0.8750 (  2029 PWs)   bands (ev):

    -6.0257  -5.9550  -5.8425  -5.7818  -5.6957   4.0195   8.7545  10.5568
    12.6989  19.5479  22.6413

     occupation numbers 
     1.0000   1.0000   1.0000   1.0000   1.0000   1.0000   1.0188   0.7907
    -0.0354  -0.0000  -0.0000

          k = 0.5000 0.0000 0.7500 (  2025 PWs)   bands (ev):

    -5.9951  -5.9192  -5.8766  -5.7985  -5.7263   3.6829   9.2025  10.1160
    13.4780  20.1553  23.6452

     occupation numbers 
     1.0000   1.0000   1.0000   1.0000   1.0000   1.0000   1.0330   0.9578
    -0.0153  -0.0000  -0.0000

          k =-0.2500-1.0000 0.0000 (  2032 PWs)   bands (ev):

    -6.0849  -6.0222  -5.7512  -5.7499  -5.6735   4.3441   8.2405  11.6517
    11.9734  18.6077  19.6486

     occupation numbers 
     1.0000   1.0000   1.0000   1.0000   1.0000   1.0000   1.0063   0.1679
     0.0506  -0.0000  -0.0000

          k =-0.5000-1.0000 0.0000 (  1984 PWs)   bands (ev):

    -5.9717  -5.9234  -5.9234  -5.7959  -5.6733   4.3991   9.6426   9.6426
    11.2782  21.8794  23.3382

     occupation numbers 
     1.0000   1.0000   1.0000   1.0000   1.0000   1.0000   1.0290   1.0290
     0.3664  -0.0000  -0.0000

     the Fermi energy is    11.0604 ev

!    total energy              =    -859.43175414 Ry

     total all-electron energy =    -41752.931896 Ry
     estimated scf accuracy    <          1.5E-10 Ry
     smearing contrib. (-TS)   =       0.00320246 Ry
     internal energy E=F+TS    =    -859.43495660 Ry

     The total energy is F=E-TS. E is the sum of the following terms:
     one-electron contribution =     -28.01236519 Ry
     hartree contribution      =      26.81193812 Ry
     xc contribution           =     -32.30509073 Ry
     ewald contribution        =     -96.05234292 Ry
     one-center paw contrib.   =    -729.87709586 Ry
      -> PAW hartree energy AE =      97.36594683 Ry
      -> PAW hartree energy PS =     -97.63295872 Ry
      -> PAW xc energy AE      =    -761.25015959 Ry
      -> PAW xc energy PS      =      31.64007562 Ry
      -> total E_H with PAW    =      26.54492622 Ry
      -> total E_XC with PAW   =    -761.91517470 Ry

     convergence has been achieved in   6 iterations

     Forces acting on atoms (cartesian axes, Ry/au):

     atom    1 type  1   force =     0.00000000    0.00000000    0.00000000
     The non-local contrib.  to forces
     atom    1 type  1   force =     0.00000000   -0.00000000   -0.00000000
     The ionic contribution  to forces
     atom    1 type  1   force =    -0.00000000   -0.00000000   -0.00000000
     The local contribution  to forces
     atom    1 type  1   force =    -0.00000000    0.00000000   -0.00000000
     The core correction contribution to forces
     atom    1 type  1   force =     0.00000000   -0.00000000   -0.00000000
     The Hubbard contrib.    to forces
     atom    1 type  1   force =     0.00000000    0.00000000    0.00000000
     The SCF correction term to forces
     atom    1 type  1   force =    -0.00000000   -0.00000000   -0.00000000

     Total force =     0.000000     Total SCF correction =     0.000000


     Computing stress (Cartesian axis) and pressure

          total   stress  (Ry/bohr**3)                   (kbar)     P=      -11.86
  -0.00008063   0.00000000   0.00000000          -11.86        0.00        0.00
   0.00000000  -0.00008063  -0.00000000            0.00      -11.86       -0.00
   0.00000000  -0.00000000  -0.00008063            0.00       -0.00      -11.86

     kinetic stress (kbar)  30490.98     -0.00      0.00
                               -0.00  30490.98      0.00
                                0.00      0.00  30490.98

     local   stress (kbar)   3255.32      0.00      0.00
                                0.00   3255.32     -0.00
                                0.00     -0.00   3255.32

     nonloc. stress (kbar) -12225.23      0.00      0.00
                                0.00 -12225.23      0.00
                                0.00      0.00 -12225.23

     hartree stress (kbar)   6422.02     -0.00     -0.00
                               -0.00   6422.02      0.00
                               -0.00      0.00   6422.02

     exc-cor stress (kbar)   7004.63      0.00     -0.00
                                0.00   7004.63      0.00
                               -0.00      0.00   7004.63

     corecor stress (kbar) -11953.05      0.00     -0.00
                                0.00 -11953.05     -0.00
                               -0.00     -0.00 -11953.05

     ewald   stress (kbar) -23006.53     -0.00     -0.00
                               -0.00 -23006.53      0.00
                               -0.00      0.00 -23006.53

     hubbard stress (kbar)      0.00      0.00      0.00
                                0.00      0.00      0.00
                                0.00      0.00      0.00

     DFT-D   stress (kbar)      0.00      0.00      0.00
                                0.00      0.00      0.00
                                0.00      0.00      0.00

     XDM     stress (kbar)      0.00      0.00      0.00
                                0.00      0.00      0.00
                                0.00      0.00      0.00

     dft-nl  stress (kbar)      0.00      0.00      0.00
                                0.00      0.00      0.00
                                0.00      0.00      0.00

     TS-vdW  stress (kbar)      0.00      0.00      0.00
                                0.00      0.00      0.00
                                0.00      0.00      0.00


                                0.00      0.00      0.00
                                0.00      0.00      0.00


                                0.00      0.00      0.00


     Writing output data file ./tmp/Pb.save/

     init_run     :      3.30s CPU      1.67s WALL (       1 calls)
     electrons    :     39.15s CPU     14.24s WALL (       1 calls)
     forces       :      0.89s CPU      0.26s WALL (       1 calls)
     stress       :      3.02s CPU      1.29s WALL (       1 calls)

     Called by init_run:
     wfcinit      :      2.39s CPU      0.92s WALL (       1 calls)
     wfcinit:atom :      0.05s CPU      0.01s WALL (      29 calls)
     wfcinit:wfcr :      2.25s CPU      0.88s WALL (      29 calls)
     potinit      :      0.18s CPU      0.18s WALL (       1 calls)
     hinit0       :      0.62s CPU      0.43s WALL (       1 calls)

     Called by electrons:
     c_bands      :     28.81s CPU      9.78s WALL (       7 calls)
     sum_band     :      8.10s CPU      2.74s WALL (       7 calls)
     v_of_rho     :      0.76s CPU      0.37s WALL (       7 calls)
     v_h          :      0.02s CPU      0.02s WALL (       7 calls)
     v_xc         :      1.05s CPU      0.48s WALL (       9 calls)
     newd         :      0.61s CPU      0.55s WALL (       7 calls)
     PAW_pot      :      0.93s CPU      0.96s WALL (       7 calls)
     mix_rho      :      0.14s CPU      0.04s WALL (       7 calls)

     Called by c_bands:
     init_us_2    :      0.89s CPU      0.27s WALL (     493 calls)
     cegterg      :     27.55s CPU      9.39s WALL (     203 calls)

     Called by sum_band:
     sum_band:wei :      0.02s CPU      0.00s WALL (       7 calls)
     sum_band:loo :      5.33s CPU      1.87s WALL (       7 calls)
     sum_band:buf :      0.03s CPU      0.01s WALL (     203 calls)
     sum_band:ini :      0.34s CPU      0.11s WALL (     203 calls)
     sum_band:cal :      0.38s CPU      0.29s WALL (     203 calls)
     sum_band:bec :      0.00s CPU      0.00s WALL (     203 calls)
     addusdens    :      2.51s CPU      0.81s WALL (       7 calls)
     addusd:skk   :      0.01s CPU      0.00s WALL (       7 calls)
     addusd:dgemm :      0.94s CPU      0.29s WALL (       7 calls)
     addusd:qvan2 :      1.12s CPU      0.38s WALL (       7 calls)

     Called by *egterg:
     cdiaghg      :      0.56s CPU      0.17s WALL (     834 calls)
     cegterg:over :      0.42s CPU      0.16s WALL (     660 calls)
     cegterg:upda :      0.28s CPU      0.11s WALL (     660 calls)
     cegterg:last :      0.46s CPU      0.17s WALL (     435 calls)
     h_psi        :     27.26s CPU      9.35s WALL (     892 calls)
     s_psi        :      0.29s CPU      0.12s WALL (     892 calls)
     g_psi        :      0.09s CPU      0.03s WALL (     660 calls)

     Called by h_psi:
     h_psi:calbec :      1.80s CPU      1.27s WALL (     892 calls)
     vloc_psi     :     25.02s CPU      7.93s WALL (     892 calls)
     add_vuspsi   :      0.36s CPU      0.13s WALL (     892 calls)

     General routines
     calbec       :      2.27s CPU      1.58s WALL (    1240 calls)
     fft          :      0.61s CPU      0.28s WALL (     115 calls)
     ffts         :      0.05s CPU      0.02s WALL (      14 calls)
     fftw         :     27.39s CPU      8.69s WALL (   14775 calls)
     interpolate  :      0.03s CPU      0.03s WALL (       7 calls)

     Parallel routines

     PAW routines
     PAW_pot      :      0.93s CPU      0.96s WALL (       7 calls)
     PAW_symme    :      0.01s CPU      0.00s WALL (      14 calls)

     PWSCF        :     46.62s CPU     17.62s WALL


   This run was terminated on:  17:16:59  12Jun2022            

=------------------------------------------------------------------------------=
   JOB DONE.
=------------------------------------------------------------------------------=
