
     Program PWSCF v.6.8 starts on 12Jun2022 at 17:18: 6 

     This program is part of the open-source Quantum ESPRESSO suite
     for quantum simulation of materials; please cite
         "P. Giannozzi et al., J. Phys.:Condens. Matter 21 395502 (2009);
         "P. Giannozzi et al., J. Phys.:Condens. Matter 29 465901 (2017);
         "P. Giannozzi et al., J. Chem. Phys. 152 154105 (2020);
          URL http://www.quantum-espresso.org", 
     in publications or presentations arising from this work. More details at
     http://www.quantum-espresso.org/quote

     Parallel version (MPI), running on     1 processors

     MPI processes distributed on     1 nodes
     5154 MiB available memory on the printing compute node when the environment starts

     Waiting for input...
     Reading input from standard input

     Current dimensions of program PWSCF are:
     Max number of different atomic species (ntypx) = 10
     Max number of k-points (npk) =  40000
     Max angular momentum in pseudopotentials (lmaxx) =  4
     file Pb.pbesol-dn-kjpaw_psl.1.0.0.UPF: wavefunction(s)  6S 6P 5D renormalized

     Subspace diagonalization in iterative solution of the eigenvalue problem:
     a serial algorithm will be used


     G-vector sticks info
     --------------------
     sticks:   dense  smooth     PW     G-vecs:    dense   smooth      PW
     Sum        1675     847    253                45767    16361    2733

     Using Slab Decomposition



     bravais-lattice index     =            2
     lattice parameter (alat)  =       9.3557  a.u.
     unit-cell volume          =     204.7214 (a.u.)^3
     number of atoms/cell      =            1
     number of atomic types    =            1
     number of electrons       =        14.00
     number of Kohn-Sham states=           11
     kinetic-energy cutoff     =      70.0000  Ry
     charge density cutoff     =     560.0000  Ry
     scf convergence threshold =      1.0E-09
     mixing beta               =       0.7000
     number of iterations used =            8  plain     mixing
     Exchange-correlation= SLA  PW   PSX  PSC
                           (   1   4  10   8   0   0   0)

     celldm(1)=   9.355659  celldm(2)=   0.000000  celldm(3)=   0.000000
     celldm(4)=   0.000000  celldm(5)=   0.000000  celldm(6)=   0.000000

     crystal axes: (cart. coord. in units of alat)
               a(1) = (  -0.500000   0.000000   0.500000 )  
               a(2) = (   0.000000   0.500000   0.500000 )  
               a(3) = (  -0.500000   0.500000   0.000000 )  

     reciprocal axes: (cart. coord. in units 2 pi/alat)
               b(1) = ( -1.000000 -1.000000  1.000000 )  
               b(2) = (  1.000000  1.000000  1.000000 )  
               b(3) = ( -1.000000  1.000000 -1.000000 )  


     PseudoPot. # 1 for Pb read from file:
     /home/elenacandellone/qe-6.8/pseudo/Pb.pbesol-dn-kjpaw_psl.1.0.0.UPF
     MD5 check sum: fd8a780189ab796002317465a8cd01ca
     Pseudo is Projector augmented-wave + core cor, Zval = 14.0
     Generated using 'atomic' code by A. Dal Corso  v.6.8
     Shape of augmentation charge: PSQ
     Using radial grid of 1281 points,  6 beta functions with: 
                l(1) =   0
                l(2) =   0
                l(3) =   1
                l(4) =   1
                l(5) =   2
                l(6) =   2
     Q(r) pseudized with 0 coefficients 


     atomic species   valence    mass     pseudopotential
        Pb            14.00   207.20000     Pb( 1.00)

     48 Sym. Ops., with inversion, found


                                    s                        frac. trans.

      isym =  1     identity                                     

 cryst.   s( 1) = (     1          0          0      )
                  (     0          1          0      )
                  (     0          0          1      )

 cart.    s( 1) = (  1.0000000  0.0000000  0.0000000 )
                  (  0.0000000  1.0000000  0.0000000 )
                  (  0.0000000  0.0000000  1.0000000 )


      isym =  2     180 deg rotation - cart. axis [0,0,1]        

 cryst.   s( 2) = (     0          1         -1      )
                  (     1          0         -1      )
                  (     0          0         -1      )

 cart.    s( 2) = ( -1.0000000  0.0000000  0.0000000 )
                  (  0.0000000 -1.0000000  0.0000000 )
                  (  0.0000000  0.0000000  1.0000000 )


      isym =  3     180 deg rotation - cart. axis [0,1,0]        

 cryst.   s( 3) = (    -1          0          0      )
                  (    -1          0          1      )
                  (    -1          1          0      )

 cart.    s( 3) = ( -1.0000000  0.0000000  0.0000000 )
                  (  0.0000000  1.0000000  0.0000000 )
                  (  0.0000000  0.0000000 -1.0000000 )


      isym =  4     180 deg rotation - cart. axis [1,0,0]        

 cryst.   s( 4) = (     0         -1          1      )
                  (     0         -1          0      )
                  (     1         -1          0      )

 cart.    s( 4) = (  1.0000000  0.0000000  0.0000000 )
                  (  0.0000000 -1.0000000  0.0000000 )
                  (  0.0000000  0.0000000 -1.0000000 )


      isym =  5     180 deg rotation - cart. axis [1,1,0]        

 cryst.   s( 5) = (     0         -1          0      )
                  (    -1          0          0      )
                  (     0          0         -1      )

 cart.    s( 5) = (  0.0000000  1.0000000  0.0000000 )
                  (  1.0000000  0.0000000  0.0000000 )
                  (  0.0000000  0.0000000 -1.0000000 )


      isym =  6     180 deg rotation - cart. axis [1,-1,0]       

 cryst.   s( 6) = (    -1          0          1      )
                  (     0         -1          1      )
                  (     0          0          1      )

 cart.    s( 6) = (  0.0000000 -1.0000000  0.0000000 )
                  ( -1.0000000  0.0000000  0.0000000 )
                  (  0.0000000  0.0000000 -1.0000000 )


      isym =  7      90 deg rotation - cart. axis [0,0,-1]       

 cryst.   s( 7) = (     0          1          0      )
                  (     0          1         -1      )
                  (    -1          1          0      )

 cart.    s( 7) = (  0.0000000  1.0000000  0.0000000 )
                  ( -1.0000000  0.0000000  0.0000000 )
                  (  0.0000000  0.0000000  1.0000000 )


      isym =  8      90 deg rotation - cart. axis [0,0,1]        

 cryst.   s( 8) = (     1          0         -1      )
                  (     1          0          0      )
                  (     1         -1          0      )

 cart.    s( 8) = (  0.0000000 -1.0000000  0.0000000 )
                  (  1.0000000  0.0000000  0.0000000 )
                  (  0.0000000  0.0000000  1.0000000 )


      isym =  9     180 deg rotation - cart. axis [1,0,1]        

 cryst.   s( 9) = (    -1          0          0      )
                  (     0          0         -1      )
                  (     0         -1          0      )

 cart.    s( 9) = (  0.0000000  0.0000000  1.0000000 )
                  (  0.0000000 -1.0000000  0.0000000 )
                  (  1.0000000  0.0000000  0.0000000 )


      isym = 10     180 deg rotation - cart. axis [-1,0,1]       

 cryst.   s(10) = (     1          0          0      )
                  (     1         -1          0      )
                  (     1          0         -1      )

 cart.    s(10) = (  0.0000000  0.0000000 -1.0000000 )
                  (  0.0000000 -1.0000000  0.0000000 )
                  ( -1.0000000  0.0000000  0.0000000 )


      isym = 11      90 deg rotation - cart. axis [0,1,0]        

 cryst.   s(11) = (     0          1         -1      )
                  (    -1          1          0      )
                  (     0          1          0      )

 cart.    s(11) = (  0.0000000  0.0000000  1.0000000 )
                  (  0.0000000  1.0000000  0.0000000 )
                  ( -1.0000000  0.0000000  0.0000000 )


      isym = 12      90 deg rotation - cart. axis [0,-1,0]       

 cryst.   s(12) = (     0         -1          1      )
                  (     0          0          1      )
                  (    -1          0          1      )

 cart.    s(12) = (  0.0000000  0.0000000 -1.0000000 )
                  (  0.0000000  1.0000000  0.0000000 )
                  (  1.0000000  0.0000000  0.0000000 )


      isym = 13     180 deg rotation - cart. axis [0,1,1]        

 cryst.   s(13) = (    -1          1          0      )
                  (     0          1          0      )
                  (     0          1         -1      )

 cart.    s(13) = ( -1.0000000  0.0000000  0.0000000 )
                  (  0.0000000  0.0000000  1.0000000 )
                  (  0.0000000  1.0000000  0.0000000 )


      isym = 14     180 deg rotation - cart. axis [0,1,-1]       

 cryst.   s(14) = (     0          0         -1      )
                  (     0         -1          0      )
                  (    -1          0          0      )

 cart.    s(14) = ( -1.0000000  0.0000000  0.0000000 )
                  (  0.0000000  0.0000000 -1.0000000 )
                  (  0.0000000 -1.0000000  0.0000000 )


      isym = 15      90 deg rotation - cart. axis [-1,0,0]       

 cryst.   s(15) = (     0          0          1      )
                  (    -1          0          1      )
                  (     0         -1          1      )

 cart.    s(15) = (  1.0000000  0.0000000  0.0000000 )
                  (  0.0000000  0.0000000  1.0000000 )
                  (  0.0000000 -1.0000000  0.0000000 )


      isym = 16      90 deg rotation - cart. axis [1,0,0]        

 cryst.   s(16) = (     1         -1          0      )
                  (     1          0         -1      )
                  (     1          0          0      )

 cart.    s(16) = (  1.0000000  0.0000000  0.0000000 )
                  (  0.0000000  0.0000000 -1.0000000 )
                  (  0.0000000  1.0000000  0.0000000 )


      isym = 17     120 deg rotation - cart. axis [-1,-1,-1]     

 cryst.   s(17) = (    -1          0          1      )
                  (    -1          1          0      )
                  (    -1          0          0      )

 cart.    s(17) = (  0.0000000  1.0000000  0.0000000 )
                  (  0.0000000  0.0000000  1.0000000 )
                  (  1.0000000  0.0000000  0.0000000 )


      isym = 18     120 deg rotation - cart. axis [-1,1,1]       

 cryst.   s(18) = (     0          1          0      )
                  (     0          0          1      )
                  (     1          0          0      )

 cart.    s(18) = (  0.0000000 -1.0000000  0.0000000 )
                  (  0.0000000  0.0000000  1.0000000 )
                  ( -1.0000000  0.0000000  0.0000000 )


      isym = 19     120 deg rotation - cart. axis [1,1,-1]       

 cryst.   s(19) = (     1          0         -1      )
                  (     0          0         -1      )
                  (     0          1         -1      )

 cart.    s(19) = (  0.0000000  1.0000000  0.0000000 )
                  (  0.0000000  0.0000000 -1.0000000 )
                  ( -1.0000000  0.0000000  0.0000000 )


      isym = 20     120 deg rotation - cart. axis [1,-1,1]       

 cryst.   s(20) = (     0         -1          0      )
                  (     1         -1          0      )
                  (     0         -1          1      )

 cart.    s(20) = (  0.0000000 -1.0000000  0.0000000 )
                  (  0.0000000  0.0000000 -1.0000000 )
                  (  1.0000000  0.0000000  0.0000000 )


      isym = 21     120 deg rotation - cart. axis [1,1,1]        

 cryst.   s(21) = (     0          0         -1      )
                  (     0          1         -1      )
                  (     1          0         -1      )

 cart.    s(21) = (  0.0000000  0.0000000  1.0000000 )
                  (  1.0000000  0.0000000  0.0000000 )
                  (  0.0000000  1.0000000  0.0000000 )


      isym = 22     120 deg rotation - cart. axis [-1,1,-1]      

 cryst.   s(22) = (    -1          1          0      )
                  (    -1          0          0      )
                  (    -1          0          1      )

 cart.    s(22) = (  0.0000000  0.0000000  1.0000000 )
                  ( -1.0000000  0.0000000  0.0000000 )
                  (  0.0000000 -1.0000000  0.0000000 )


      isym = 23     120 deg rotation - cart. axis [1,-1,-1]      

 cryst.   s(23) = (     0          0          1      )
                  (     1          0          0      )
                  (     0          1          0      )

 cart.    s(23) = (  0.0000000  0.0000000 -1.0000000 )
                  ( -1.0000000  0.0000000  0.0000000 )
                  (  0.0000000  1.0000000  0.0000000 )


      isym = 24     120 deg rotation - cart. axis [-1,-1,1]      

 cryst.   s(24) = (     1         -1          0      )
                  (     0         -1          1      )
                  (     0         -1          0      )

 cart.    s(24) = (  0.0000000  0.0000000 -1.0000000 )
                  (  1.0000000  0.0000000  0.0000000 )
                  (  0.0000000 -1.0000000  0.0000000 )


      isym = 25     inversion                                    

 cryst.   s(25) = (    -1          0          0      )
                  (     0         -1          0      )
                  (     0          0         -1      )

 cart.    s(25) = ( -1.0000000  0.0000000  0.0000000 )
                  (  0.0000000 -1.0000000  0.0000000 )
                  (  0.0000000  0.0000000 -1.0000000 )


      isym = 26     inv. 180 deg rotation - cart. axis [0,0,1]   

 cryst.   s(26) = (     0         -1          1      )
                  (    -1          0          1      )
                  (     0          0          1      )

 cart.    s(26) = (  1.0000000  0.0000000  0.0000000 )
                  (  0.0000000  1.0000000  0.0000000 )
                  (  0.0000000  0.0000000 -1.0000000 )


      isym = 27     inv. 180 deg rotation - cart. axis [0,1,0]   

 cryst.   s(27) = (     1          0          0      )
                  (     1          0         -1      )
                  (     1         -1          0      )

 cart.    s(27) = (  1.0000000  0.0000000  0.0000000 )
                  (  0.0000000 -1.0000000  0.0000000 )
                  (  0.0000000  0.0000000  1.0000000 )


      isym = 28     inv. 180 deg rotation - cart. axis [1,0,0]   

 cryst.   s(28) = (     0          1         -1      )
                  (     0          1          0      )
                  (    -1          1          0      )

 cart.    s(28) = ( -1.0000000  0.0000000  0.0000000 )
                  (  0.0000000  1.0000000  0.0000000 )
                  (  0.0000000  0.0000000  1.0000000 )


      isym = 29     inv. 180 deg rotation - cart. axis [1,1,0]   

 cryst.   s(29) = (     0          1          0      )
                  (     1          0          0      )
                  (     0          0          1      )

 cart.    s(29) = (  0.0000000 -1.0000000  0.0000000 )
                  ( -1.0000000  0.0000000  0.0000000 )
                  (  0.0000000  0.0000000  1.0000000 )


      isym = 30     inv. 180 deg rotation - cart. axis [1,-1,0]  

 cryst.   s(30) = (     1          0         -1      )
                  (     0          1         -1      )
                  (     0          0         -1      )

 cart.    s(30) = (  0.0000000  1.0000000  0.0000000 )
                  (  1.0000000  0.0000000  0.0000000 )
                  (  0.0000000  0.0000000  1.0000000 )


      isym = 31     inv.  90 deg rotation - cart. axis [0,0,-1]  

 cryst.   s(31) = (     0         -1          0      )
                  (     0         -1          1      )
                  (     1         -1          0      )

 cart.    s(31) = (  0.0000000 -1.0000000  0.0000000 )
                  (  1.0000000  0.0000000  0.0000000 )
                  (  0.0000000  0.0000000 -1.0000000 )


      isym = 32     inv.  90 deg rotation - cart. axis [0,0,1]   

 cryst.   s(32) = (    -1          0          1      )
                  (    -1          0          0      )
                  (    -1          1          0      )

 cart.    s(32) = (  0.0000000  1.0000000  0.0000000 )
                  ( -1.0000000  0.0000000  0.0000000 )
                  (  0.0000000  0.0000000 -1.0000000 )


      isym = 33     inv. 180 deg rotation - cart. axis [1,0,1]   

 cryst.   s(33) = (     1          0          0      )
                  (     0          0          1      )
                  (     0          1          0      )

 cart.    s(33) = (  0.0000000  0.0000000 -1.0000000 )
                  (  0.0000000  1.0000000  0.0000000 )
                  ( -1.0000000  0.0000000  0.0000000 )


      isym = 34     inv. 180 deg rotation - cart. axis [-1,0,1]  

 cryst.   s(34) = (    -1          0          0      )
                  (    -1          1          0      )
                  (    -1          0          1      )

 cart.    s(34) = (  0.0000000  0.0000000  1.0000000 )
                  (  0.0000000  1.0000000  0.0000000 )
                  (  1.0000000  0.0000000  0.0000000 )


      isym = 35     inv.  90 deg rotation - cart. axis [0,1,0]   

 cryst.   s(35) = (     0         -1          1      )
                  (     1         -1          0      )
                  (     0         -1          0      )

 cart.    s(35) = (  0.0000000  0.0000000 -1.0000000 )
                  (  0.0000000 -1.0000000  0.0000000 )
                  (  1.0000000  0.0000000  0.0000000 )


      isym = 36     inv.  90 deg rotation - cart. axis [0,-1,0]  

 cryst.   s(36) = (     0          1         -1      )
                  (     0          0         -1      )
                  (     1          0         -1      )

 cart.    s(36) = (  0.0000000  0.0000000  1.0000000 )
                  (  0.0000000 -1.0000000  0.0000000 )
                  ( -1.0000000  0.0000000  0.0000000 )


      isym = 37     inv. 180 deg rotation - cart. axis [0,1,1]   

 cryst.   s(37) = (     1         -1          0      )
                  (     0         -1          0      )
                  (     0         -1          1      )

 cart.    s(37) = (  1.0000000  0.0000000  0.0000000 )
                  (  0.0000000  0.0000000 -1.0000000 )
                  (  0.0000000 -1.0000000  0.0000000 )


      isym = 38     inv. 180 deg rotation - cart. axis [0,1,-1]  

 cryst.   s(38) = (     0          0          1      )
                  (     0          1          0      )
                  (     1          0          0      )

 cart.    s(38) = (  1.0000000  0.0000000  0.0000000 )
                  (  0.0000000  0.0000000  1.0000000 )
                  (  0.0000000  1.0000000  0.0000000 )


      isym = 39     inv.  90 deg rotation - cart. axis [-1,0,0]  

 cryst.   s(39) = (     0          0         -1      )
                  (     1          0         -1      )
                  (     0          1         -1      )

 cart.    s(39) = ( -1.0000000  0.0000000  0.0000000 )
                  (  0.0000000  0.0000000 -1.0000000 )
                  (  0.0000000  1.0000000  0.0000000 )


      isym = 40     inv.  90 deg rotation - cart. axis [1,0,0]   

 cryst.   s(40) = (    -1          1          0      )
                  (    -1          0          1      )
                  (    -1          0          0      )

 cart.    s(40) = ( -1.0000000  0.0000000  0.0000000 )
                  (  0.0000000  0.0000000  1.0000000 )
                  (  0.0000000 -1.0000000  0.0000000 )


      isym = 41     inv. 120 deg rotation - cart. axis [-1,-1,-1]

 cryst.   s(41) = (     1          0         -1      )
                  (     1         -1          0      )
                  (     1          0          0      )

 cart.    s(41) = (  0.0000000 -1.0000000  0.0000000 )
                  (  0.0000000  0.0000000 -1.0000000 )
                  ( -1.0000000  0.0000000  0.0000000 )


      isym = 42     inv. 120 deg rotation - cart. axis [-1,1,1]  

 cryst.   s(42) = (     0         -1          0      )
                  (     0          0         -1      )
                  (    -1          0          0      )

 cart.    s(42) = (  0.0000000  1.0000000  0.0000000 )
                  (  0.0000000  0.0000000 -1.0000000 )
                  (  1.0000000  0.0000000  0.0000000 )


      isym = 43     inv. 120 deg rotation - cart. axis [1,1,-1]  

 cryst.   s(43) = (    -1          0          1      )
                  (     0          0          1      )
                  (     0         -1          1      )

 cart.    s(43) = (  0.0000000 -1.0000000  0.0000000 )
                  (  0.0000000  0.0000000  1.0000000 )
                  (  1.0000000  0.0000000  0.0000000 )


      isym = 44     inv. 120 deg rotation - cart. axis [1,-1,1]  

 cryst.   s(44) = (     0          1          0      )
                  (    -1          1          0      )
                  (     0          1         -1      )

 cart.    s(44) = (  0.0000000  1.0000000  0.0000000 )
                  (  0.0000000  0.0000000  1.0000000 )
                  ( -1.0000000  0.0000000  0.0000000 )


      isym = 45     inv. 120 deg rotation - cart. axis [1,1,1]   

 cryst.   s(45) = (     0          0          1      )
                  (     0         -1          1      )
                  (    -1          0          1      )

 cart.    s(45) = (  0.0000000  0.0000000 -1.0000000 )
                  ( -1.0000000  0.0000000  0.0000000 )
                  (  0.0000000 -1.0000000  0.0000000 )


      isym = 46     inv. 120 deg rotation - cart. axis [-1,1,-1] 

 cryst.   s(46) = (     1         -1          0      )
                  (     1          0          0      )
                  (     1          0         -1      )

 cart.    s(46) = (  0.0000000  0.0000000 -1.0000000 )
                  (  1.0000000  0.0000000  0.0000000 )
                  (  0.0000000  1.0000000  0.0000000 )


      isym = 47     inv. 120 deg rotation - cart. axis [1,-1,-1] 

 cryst.   s(47) = (     0          0         -1      )
                  (    -1          0          0      )
                  (     0         -1          0      )

 cart.    s(47) = (  0.0000000  0.0000000  1.0000000 )
                  (  1.0000000  0.0000000  0.0000000 )
                  (  0.0000000 -1.0000000  0.0000000 )


      isym = 48     inv. 120 deg rotation - cart. axis [-1,-1,1] 

 cryst.   s(48) = (    -1          1          0      )
                  (     0          1         -1      )
                  (     0          1          0      )

 cart.    s(48) = (  0.0000000  0.0000000  1.0000000 )
                  ( -1.0000000  0.0000000  0.0000000 )
                  (  0.0000000  1.0000000  0.0000000 )


     point group O_h (m-3m) 
     there are 10 classes
     the character table:

       E     8C3   3C2   6C4   6C2'  i     8S6   3s_h  6S4   6s_d 
A_1g   1.00  1.00  1.00  1.00  1.00  1.00  1.00  1.00  1.00  1.00
A_2g   1.00  1.00  1.00 -1.00 -1.00  1.00  1.00  1.00 -1.00 -1.00
E_g    2.00 -1.00  2.00  0.00  0.00  2.00 -1.00  2.00  0.00  0.00
T_1g   3.00  0.00 -1.00  1.00 -1.00  3.00  0.00 -1.00  1.00 -1.00
T_2g   3.00  0.00 -1.00 -1.00  1.00  3.00  0.00 -1.00 -1.00  1.00
A_1u   1.00  1.00  1.00  1.00  1.00 -1.00 -1.00 -1.00 -1.00 -1.00
A_2u   1.00  1.00  1.00 -1.00 -1.00 -1.00 -1.00 -1.00  1.00  1.00
E_u    2.00 -1.00  2.00  0.00  0.00 -2.00  1.00 -2.00  0.00  0.00
T_1u   3.00  0.00 -1.00  1.00 -1.00 -3.00  0.00  1.00 -1.00  1.00
T_2u   3.00  0.00 -1.00 -1.00  1.00 -3.00  0.00  1.00  1.00 -1.00

     the symmetry operations in each class and the name of the first element:

     E        1
          identity                                               
     8C3     17   19   20   18   24   21   22   23
          120 deg rotation - cart. axis [-1,-1,-1]               
     3C2      2    4    3
          180 deg rotation - cart. axis [0,0,1]                  
     6C4      7    8   15   16   12   11
           90 deg rotation - cart. axis [0,0,-1]                 
     6C2'     5    6   14   13   10    9
          180 deg rotation - cart. axis [1,1,0]                  
     i       25
          inversion                                              
     8S6     41   43   44   42   48   45   46   47
          inv. 120 deg rotation - cart. axis [-1,-1,-1]          
     3s_h    26   28   27
          inv. 180 deg rotation - cart. axis [0,0,1]             
     6S4     31   32   39   40   36   35
          inv.  90 deg rotation - cart. axis [0,0,-1]            
     6s_d    29   30   38   37   34   33
          inv. 180 deg rotation - cart. axis [1,1,0]             

   Cartesian axes

     site n.     atom                  positions (alat units)
         1           Pb  tau(   1) = (   0.0000000   0.0000000   0.0000000  )

   Crystallographic axes

     site n.     atom                  positions (cryst. coord.)
         1           Pb  tau(   1) = (  0.0000000  0.0000000  0.0000000  )

     number of k points=    35  Methfessel-Paxton smearing, width (Ry)=  0.0400
                       cart. coord. in units 2pi/alat
        k(    1) = (   0.0000000   0.0000000   0.0000000), wk =   0.0027435
        k(    2) = (  -0.1111111   0.1111111  -0.1111111), wk =   0.0219479
        k(    3) = (  -0.2222222   0.2222222  -0.2222222), wk =   0.0219479
        k(    4) = (  -0.3333333   0.3333333  -0.3333333), wk =   0.0219479
        k(    5) = (  -0.4444444   0.4444444  -0.4444444), wk =   0.0219479
        k(    6) = (   0.0000000   0.2222222   0.0000000), wk =   0.0164609
        k(    7) = (  -0.1111111   0.3333333  -0.1111111), wk =   0.0658436
        k(    8) = (  -0.2222222   0.4444444  -0.2222222), wk =   0.0658436
        k(    9) = (  -0.3333333   0.5555556  -0.3333333), wk =   0.0658436
        k(   10) = (   0.5555556  -0.3333333   0.5555556), wk =   0.0658436
        k(   11) = (   0.4444444  -0.2222222   0.4444444), wk =   0.0658436
        k(   12) = (   0.3333333  -0.1111111   0.3333333), wk =   0.0658436
        k(   13) = (   0.2222222  -0.0000000   0.2222222), wk =   0.0329218
        k(   14) = (   0.0000000   0.4444444   0.0000000), wk =   0.0164609
        k(   15) = (  -0.1111111   0.5555556  -0.1111111), wk =   0.0658436
        k(   16) = (  -0.2222222   0.6666667  -0.2222222), wk =   0.0658436
        k(   17) = (   0.6666667  -0.2222222   0.6666667), wk =   0.0658436
        k(   18) = (   0.5555556  -0.1111111   0.5555556), wk =   0.0658436
        k(   19) = (   0.4444444   0.0000000   0.4444444), wk =   0.0329218
        k(   20) = (   0.0000000   0.6666667   0.0000000), wk =   0.0164609
        k(   21) = (  -0.1111111   0.7777778  -0.1111111), wk =   0.0658436
        k(   22) = (   0.7777778  -0.1111111   0.7777778), wk =   0.0658436
        k(   23) = (   0.6666667  -0.0000000   0.6666667), wk =   0.0329218
        k(   24) = (   0.0000000   0.8888889   0.0000000), wk =   0.0164609
        k(   25) = (   0.8888889   0.0000000   0.8888889), wk =   0.0329218
        k(   26) = (  -0.2222222   0.4444444   0.0000000), wk =   0.0658436
        k(   27) = (  -0.3333333   0.5555556  -0.1111111), wk =   0.1316872
        k(   28) = (   0.5555556  -0.3333333   0.7777778), wk =   0.1316872
        k(   29) = (  -0.2222222   0.6666667   0.0000000), wk =   0.0658436
        k(   30) = (   0.6666667  -0.2222222   0.8888889), wk =   0.1316872
        k(   31) = (   0.5555556  -0.1111111   0.7777778), wk =   0.1316872
        k(   32) = (   0.4444444   0.0000000   0.6666667), wk =   0.0658436
        k(   33) = (   0.7777778  -0.1111111   1.0000000), wk =   0.0658436
        k(   34) = (   0.6666667  -0.0000000   0.8888889), wk =   0.0658436
        k(   35) = (   0.5555556  -0.1111111   1.0000000), wk =   0.0658436

                       cryst. coord.
        k(    1) = (   0.0000000   0.0000000   0.0000000), wk =   0.0027435
        k(    2) = (   0.0000000   0.0000000   0.1111111), wk =   0.0219479
        k(    3) = (   0.0000000   0.0000000   0.2222222), wk =   0.0219479
        k(    4) = (   0.0000000   0.0000000   0.3333333), wk =   0.0219479
        k(    5) = (   0.0000000   0.0000000   0.4444444), wk =   0.0219479
        k(    6) = (   0.0000000   0.1111111   0.1111111), wk =   0.0164609
        k(    7) = (   0.0000000   0.1111111   0.2222222), wk =   0.0658436
        k(    8) = (   0.0000000   0.1111111   0.3333333), wk =   0.0658436
        k(    9) = (   0.0000000   0.1111111   0.4444444), wk =   0.0658436
        k(   10) = (   0.0000000   0.1111111  -0.4444444), wk =   0.0658436
        k(   11) = (   0.0000000   0.1111111  -0.3333333), wk =   0.0658436
        k(   12) = (   0.0000000   0.1111111  -0.2222222), wk =   0.0658436
        k(   13) = (   0.0000000   0.1111111  -0.1111111), wk =   0.0329218
        k(   14) = (   0.0000000   0.2222222   0.2222222), wk =   0.0164609
        k(   15) = (   0.0000000   0.2222222   0.3333333), wk =   0.0658436
        k(   16) = (   0.0000000   0.2222222   0.4444444), wk =   0.0658436
        k(   17) = (   0.0000000   0.2222222  -0.4444444), wk =   0.0658436
        k(   18) = (   0.0000000   0.2222222  -0.3333333), wk =   0.0658436
        k(   19) = (   0.0000000   0.2222222  -0.2222222), wk =   0.0329218
        k(   20) = (   0.0000000   0.3333333   0.3333333), wk =   0.0164609
        k(   21) = (   0.0000000   0.3333333   0.4444444), wk =   0.0658436
        k(   22) = (   0.0000000   0.3333333  -0.4444444), wk =   0.0658436
        k(   23) = (   0.0000000   0.3333333  -0.3333333), wk =   0.0329218
        k(   24) = (   0.0000000   0.4444444   0.4444444), wk =   0.0164609
        k(   25) = (   0.0000000   0.4444444  -0.4444444), wk =   0.0329218
        k(   26) = (   0.1111111   0.2222222   0.3333333), wk =   0.0658436
        k(   27) = (   0.1111111   0.2222222   0.4444444), wk =   0.1316872
        k(   28) = (   0.1111111   0.2222222  -0.4444444), wk =   0.1316872
        k(   29) = (   0.1111111   0.3333333   0.4444444), wk =   0.0658436
        k(   30) = (   0.1111111   0.3333333  -0.4444444), wk =   0.1316872
        k(   31) = (   0.1111111   0.3333333  -0.3333333), wk =   0.1316872
        k(   32) = (   0.1111111   0.3333333  -0.2222222), wk =   0.0658436
        k(   33) = (   0.1111111   0.4444444  -0.4444444), wk =   0.0658436
        k(   34) = (   0.1111111   0.4444444  -0.3333333), wk =   0.0658436
        k(   35) = (   0.2222222   0.4444444  -0.3333333), wk =   0.0658436

     Dense  grid:    45767 G-vectors     FFT dimensions: (  50,  50,  50)

     Smooth grid:    16361 G-vectors     FFT dimensions: (  36,  36,  36)

     Dynamical RAM for                 wfc:       0.34 MB

     Dynamical RAM for     wfc (w. buffer):      12.24 MB

     Dynamical RAM for           str. fact:       0.70 MB

     Dynamical RAM for           local pot:       0.00 MB

     Dynamical RAM for          nlocal pot:       0.56 MB

     Dynamical RAM for                qrad:       1.90 MB

     Dynamical RAM for          rho,v,vnew:       4.96 MB

     Dynamical RAM for               rhoin:       1.65 MB

     Dynamical RAM for            rho*nmix:      11.17 MB

     Dynamical RAM for           G-vectors:       2.74 MB

     Dynamical RAM for          h,s,v(r/c):       0.02 MB

     Dynamical RAM for          <psi|beta>:       0.00 MB

     Dynamical RAM for                 psi:       0.68 MB

     Dynamical RAM for                hpsi:       0.68 MB

     Dynamical RAM for                spsi:       0.68 MB

     Dynamical RAM for      wfcinit/wfcrot:       0.68 MB

     Dynamical RAM for           addusdens:     130.59 MB

     Dynamical RAM for          addusforce:     130.94 MB

     Dynamical RAM for         addusstress:     140.37 MB

     Estimated static dynamical RAM per process >      30.91 MB

     Estimated max dynamical RAM per process >     182.45 MB

     Initial potential from superposition of free atoms

     starting charge   13.99789, renormalised to   14.00000
     Starting wfcs are    9 randomized atomic wfcs +    2 random wfcs
     Checking if some PAW data can be deallocated... 

     total cpu time spent up to now is        1.5 secs

     Self-consistent Calculation

     iteration #  1     ecut=    70.00 Ry     beta= 0.70
     Davidson diagonalization with overlap

---- Real-time Memory Report at c_bands before calling an iterative solver
           189 MiB given to the printing process from OS
             0 MiB allocation reported by mallinfo(arena+hblkhd)
          5106 MiB available memory on the node where the printing process lives
------------------
     ethr =  1.00E-02,  avg # of iterations =  4.5

     Threshold (ethr) on eigenvalues was too large:
     Diagonalizing with lowered threshold

     Davidson diagonalization with overlap

---- Real-time Memory Report at c_bands before calling an iterative solver
           207 MiB given to the printing process from OS
             0 MiB allocation reported by mallinfo(arena+hblkhd)
          5093 MiB available memory on the node where the printing process lives
------------------
     ethr =  1.73E-05,  avg # of iterations =  7.0

     total cpu time spent up to now is        9.1 secs

     total energy              =    -859.43241971 Ry
     estimated scf accuracy    <       0.00243509 Ry

     iteration #  2     ecut=    70.00 Ry     beta= 0.70
     Davidson diagonalization with overlap

---- Real-time Memory Report at c_bands before calling an iterative solver
           214 MiB given to the printing process from OS
             0 MiB allocation reported by mallinfo(arena+hblkhd)
          5087 MiB available memory on the node where the printing process lives
------------------
     ethr =  1.74E-05,  avg # of iterations =  2.0

     total cpu time spent up to now is       14.7 secs

     total energy              =    -859.43288773 Ry
     estimated scf accuracy    <       0.00018964 Ry

     iteration #  3     ecut=    70.00 Ry     beta= 0.70
     Davidson diagonalization with overlap

---- Real-time Memory Report at c_bands before calling an iterative solver
           218 MiB given to the printing process from OS
             0 MiB allocation reported by mallinfo(arena+hblkhd)
          5083 MiB available memory on the node where the printing process lives
------------------
     ethr =  1.35E-06,  avg # of iterations =  3.5

     total cpu time spent up to now is       18.1 secs

     total energy              =    -859.43292493 Ry
     estimated scf accuracy    <       0.00000751 Ry

     iteration #  4     ecut=    70.00 Ry     beta= 0.70
     Davidson diagonalization with overlap

---- Real-time Memory Report at c_bands before calling an iterative solver
           219 MiB given to the printing process from OS
             0 MiB allocation reported by mallinfo(arena+hblkhd)
          5082 MiB available memory on the node where the printing process lives
------------------
     ethr =  5.36E-08,  avg # of iterations =  2.0

     total cpu time spent up to now is       21.5 secs

     total energy              =    -859.43292579 Ry
     estimated scf accuracy    <       0.00000038 Ry

     iteration #  5     ecut=    70.00 Ry     beta= 0.70
     Davidson diagonalization with overlap

---- Real-time Memory Report at c_bands before calling an iterative solver
           219 MiB given to the printing process from OS
             0 MiB allocation reported by mallinfo(arena+hblkhd)
          5082 MiB available memory on the node where the printing process lives
------------------
     ethr =  2.74E-09,  avg # of iterations =  2.1

     total cpu time spent up to now is       25.5 secs

     total energy              =    -859.43292596 Ry
     estimated scf accuracy    <       0.00000008 Ry

     iteration #  6     ecut=    70.00 Ry     beta= 0.70
     Davidson diagonalization with overlap

---- Real-time Memory Report at c_bands before calling an iterative solver
           220 MiB given to the printing process from OS
             0 MiB allocation reported by mallinfo(arena+hblkhd)
          5082 MiB available memory on the node where the printing process lives
------------------
     ethr =  5.96E-10,  avg # of iterations =  2.0

     total cpu time spent up to now is       29.2 secs

     End of self-consistent calculation

          k = 0.0000 0.0000 0.0000 (  2085 PWs)   bands (ev):

    -5.9850  -5.9850  -5.9850  -5.8440  -5.8440  -0.7426  18.4396  18.4396
    18.4396  21.0729  22.3221

     occupation numbers 
     1.0000   1.0000   1.0000   1.0000   1.0000   1.0000  -0.0000  -0.0000
    -0.0000  -0.0000  -0.0000

          k =-0.1111 0.1111-0.1111 (  2028 PWs)   bands (ev):

    -5.9853  -5.9682  -5.9682  -5.8439  -5.8439  -0.5050  16.0651  18.1517
    18.1517  20.5839  23.3579

     occupation numbers 
     1.0000   1.0000   1.0000   1.0000   1.0000   1.0000  -0.0000  -0.0000
    -0.0000  -0.0000  -0.0000

          k =-0.2222 0.2222-0.2222 (  2018 PWs)   bands (ev):

    -5.9907  -5.9486  -5.9486  -5.8210  -5.8210   0.2062  12.5950  17.5508
    17.5508  20.1673  23.0774

     occupation numbers 
     1.0000   1.0000   1.0000   1.0000   1.0000   1.0000  -0.0001  -0.0000
    -0.0000  -0.0000  -0.0000

          k =-0.3333 0.3333-0.3333 (  2030 PWs)   bands (ev):

    -6.0025  -5.9583  -5.9583  -5.7619  -5.7619   1.3476   9.4772  16.9868
    16.9868  20.0485  21.7292

     occupation numbers 
     1.0000   1.0000   1.0000   1.0000   1.0000   1.0000   1.0003  -0.0000
    -0.0000  -0.0000  -0.0000

          k =-0.4444 0.4444-0.4444 (  2027 PWs)   bands (ev):

    -6.0129  -5.9717  -5.9717  -5.7152  -5.7152   2.6127   7.2010  16.6572
    16.6572  20.2482  20.7941

     occupation numbers 
     1.0000   1.0000   1.0000   1.0000   1.0000   1.0000   1.0000  -0.0000
    -0.0000  -0.0000  -0.0000

          k = 0.0000 0.2222 0.0000 (  2029 PWs)   bands (ev):

    -6.0041  -5.9504  -5.9504  -5.8644  -5.8295  -0.4260  16.7404  17.2583
    17.2583  20.0984  22.6605

     occupation numbers 
     1.0000   1.0000   1.0000   1.0000   1.0000   1.0000  -0.0000  -0.0000
    -0.0000  -0.0000  -0.0000

          k =-0.1111 0.3333-0.1111 (  2015 PWs)   bands (ev):

    -6.0131  -5.9263  -5.9200  -5.8703  -5.8051   0.1275  13.7730  16.4323
    16.9220  20.2099  21.4148

     occupation numbers 
     1.0000   1.0000   1.0000   1.0000   1.0000   1.0000  -0.0000  -0.0000
    -0.0000  -0.0000  -0.0000

          k =-0.2222 0.4444-0.2222 (  2014 PWs)   bands (ev):

    -6.0115  -5.9428  -5.9209  -5.8238  -5.7517   1.1310  10.5971  15.9173
    16.1089  19.6355  22.3285

     occupation numbers 
     1.0000   1.0000   1.0000   1.0000   1.0000   1.0000   0.9602  -0.0000
    -0.0000  -0.0000  -0.0000

          k =-0.3333 0.5556-0.3333 (  2024 PWs)   bands (ev):

    -6.0090  -5.9620  -5.9367  -5.7672  -5.7105   2.4122   8.0199  15.2740
    15.8206  19.2822  22.3714

     occupation numbers 
     1.0000   1.0000   1.0000   1.0000   1.0000   1.0000   1.0000  -0.0000
    -0.0000  -0.0000  -0.0000

          k = 0.5556-0.3333 0.5556 (  2016 PWs)   bands (ev):

    -6.0005  -5.9711  -5.9453  -5.7336  -5.7168   3.0096   7.0985  14.7034
    16.1823  19.4511  21.9041

     occupation numbers 
     1.0000   1.0000   1.0000   1.0000   1.0000   1.0000   1.0000  -0.0000
    -0.0000  -0.0000  -0.0000

          k = 0.4444-0.2222 0.4444 (  2027 PWs)   bands (ev):

    -5.9890  -5.9655  -5.9387  -5.7715  -5.7398   1.9793   8.7883  14.5417
    16.9559  20.0988  21.6250

     occupation numbers 
     1.0000   1.0000   1.0000   1.0000   1.0000   1.0000   1.0000  -0.0000
    -0.0000  -0.0000  -0.0000

          k = 0.3333-0.1111 0.3333 (  2022 PWs)   bands (ev):

    -5.9876  -5.9476  -5.9248  -5.8429  -5.7776   0.7501  11.6033  14.8508
    17.9260  21.1212  21.6393

     occupation numbers 
     1.0000   1.0000   1.0000   1.0000   1.0000   1.0000  -0.0344  -0.0000
    -0.0000  -0.0000  -0.0000

          k = 0.2222-0.0000 0.2222 (  2025 PWs)   bands (ev):

    -5.9898  -5.9457  -5.9452  -5.8619  -5.8191  -0.1092  14.5372  15.9125
    18.5236  21.1253  22.8369

     occupation numbers 
     1.0000   1.0000   1.0000   1.0000   1.0000   1.0000  -0.0000  -0.0000
    -0.0000  -0.0000  -0.0000

          k = 0.0000 0.4444 0.0000 (  2017 PWs)   bands (ev):

    -6.0530  -5.9229  -5.8613  -5.8613  -5.7928   0.5210  14.0081  15.4083
    15.4083  18.9124  19.3755

     occupation numbers 
     1.0000   1.0000   1.0000   1.0000   1.0000   1.0000  -0.0000  -0.0000
    -0.0000  -0.0000  -0.0000

          k =-0.1111 0.5556-0.1111 (  2022 PWs)   bands (ev):

    -6.0635  -5.9533  -5.8412  -5.8163  -5.7476   1.3683  11.6721  14.3908
    14.7634  18.3947  19.8145

     occupation numbers 
     1.0000   1.0000   1.0000   1.0000   1.0000   1.0000  -0.0351  -0.0000
    -0.0000  -0.0000  -0.0000

          k =-0.2222 0.6667-0.2222 (  2033 PWs)   bands (ev):

    -6.0490  -5.9525  -5.8554  -5.7989  -5.7051   2.5520   9.2146  13.0900
    14.6086  18.0955  22.1699

     occupation numbers 
     1.0000   1.0000   1.0000   1.0000   1.0000   1.0000   1.0000  -0.0000
    -0.0000  -0.0000  -0.0000

          k = 0.6667-0.2222 0.6667 (  2027 PWs)   bands (ev):

    -6.0293  -5.9223  -5.8703  -5.8000  -5.7132   3.4740   7.7909  12.1074
    14.9821  18.2604  24.4159

     occupation numbers 
     1.0000   1.0000   1.0000   1.0000   1.0000   1.0000   1.0000  -0.0062
    -0.0000  -0.0000  -0.0000

          k = 0.5556-0.1111 0.5556 (  2016 PWs)   bands (ev):

    -6.0012  -5.9215  -5.8748  -5.7855  -5.7721   2.9133   8.6787  11.6660
    15.8459  18.8513  23.9512

     occupation numbers 
     1.0000   1.0000   1.0000   1.0000   1.0000   1.0000   1.0000  -0.0352
    -0.0000  -0.0000  -0.0000

          k = 0.4444 0.0000 0.4444 (  2017 PWs)   bands (ev):

    -5.9689  -5.9573  -5.8697  -5.8500  -5.7659   1.7166  10.5897  12.2617
    17.0237  19.8693  23.2649

     occupation numbers 
     1.0000   1.0000   1.0000   1.0000   1.0000   1.0000   0.9649  -0.0021
    -0.0000  -0.0000  -0.0000

          k = 0.0000 0.6667 0.0000 (  2044 PWs)   bands (ev):

    -6.1083  -5.9988  -5.7558  -5.7558  -5.7510   2.0510  10.9850  13.9576
    13.9576  17.3508  18.1119

     occupation numbers 
     1.0000   1.0000   1.0000   1.0000   1.0000   1.0000   0.4901  -0.0000
    -0.0000  -0.0000  -0.0000

          k =-0.1111 0.7778-0.1111 (  2027 PWs)   bands (ev):

    -6.1080  -6.0155  -5.7656  -5.7323  -5.6999   3.0753   9.4506  12.4398
    13.6543  17.2670  19.0860

     occupation numbers 
     1.0000   1.0000   1.0000   1.0000   1.0000   1.0000   1.0003  -0.0005
    -0.0000  -0.0000  -0.0000

          k = 0.7778-0.1111 0.7778 (  2040 PWs)   bands (ev):

    -6.0770  -5.9747  -5.7838  -5.7631  -5.7026   3.9897   8.5765  10.5658
    13.9066  17.4510  21.7224

     occupation numbers 
     1.0000   1.0000   1.0000   1.0000   1.0000   1.0000   1.0000   0.9787
    -0.0000  -0.0000  -0.0000

          k = 0.6667-0.0000 0.6667 (  2015 PWs)   bands (ev):

    -6.0403  -5.8816  -5.8343  -5.8116  -5.7468   3.8438   9.1960   9.4696
    14.6849  17.9608  24.9427

     occupation numbers 
     1.0000   1.0000   1.0000   1.0000   1.0000   1.0000   1.0000   1.0003
    -0.0000  -0.0000  -0.0000

          k = 0.0000 0.8889 0.0000 (  2028 PWs)   bands (ev):

    -6.1443  -6.0524  -5.7234  -5.6842  -5.6842   3.8513   8.2997  13.1808
    13.1808  16.4852  17.7187

     occupation numbers 
     1.0000   1.0000   1.0000   1.0000   1.0000   1.0000   1.0000  -0.0000
    -0.0000  -0.0000  -0.0000

          k = 0.8889 0.0000 0.8889 (  2032 PWs)   bands (ev):

    -6.1257  -6.0424  -5.7331  -5.6970  -5.6828   4.3095   7.9410  11.8353
    13.2686  16.9264  18.8513

     occupation numbers 
     1.0000   1.0000   1.0000   1.0000   1.0000   1.0000   1.0000  -0.0243
    -0.0000  -0.0000  -0.0000

          k =-0.2222 0.4444 0.0000 (  2019 PWs)   bands (ev):

    -6.0197  -5.9319  -5.8807  -5.8651  -5.7716   0.8293  12.3672  14.0897
    16.6691  20.3732  20.6395

     occupation numbers 
     1.0000   1.0000   1.0000   1.0000   1.0000   1.0000  -0.0009  -0.0000
    -0.0000  -0.0000  -0.0000

          k =-0.3333 0.5556-0.1111 (  2029 PWs)   bands (ev):

    -6.0035  -5.9547  -5.8857  -5.8136  -5.7395   1.9338   9.9331  13.1467
    15.6267  19.9510  22.1229

     occupation numbers 
     1.0000   1.0000   1.0000   1.0000   1.0000   1.0000   1.0102  -0.0000
    -0.0000  -0.0000  -0.0000

          k = 0.5556-0.3333 0.7778 (  2024 PWs)   bands (ev):

    -5.9892  -5.9718  -5.8828  -5.7884  -5.7187   3.1100   7.8876  12.9567
    14.8400  19.7525  21.9645

     occupation numbers 
     1.0000   1.0000   1.0000   1.0000   1.0000   1.0000   1.0000  -0.0000
    -0.0000  -0.0000  -0.0000

          k =-0.2222 0.6667 0.0000 (  2035 PWs)   bands (ev):

    -6.0647  -5.9785  -5.8325  -5.7580  -5.7302   2.3149  10.4259  12.7112
    13.8707  18.9428  19.8010

     occupation numbers 
     1.0000   1.0000   1.0000   1.0000   1.0000   1.0000   1.0267  -0.0000
    -0.0000  -0.0000  -0.0000

          k = 0.6667-0.2222 0.8889 (  2026 PWs)   bands (ev):

    -6.0346  -5.9663  -5.8452  -5.7678  -5.7081   3.4334   8.9480  11.4647
    13.2005  19.2564  21.9885

     occupation numbers 
     1.0000   1.0000   1.0000   1.0000   1.0000   1.0000   1.0000  -0.0102
    -0.0000  -0.0000  -0.0000

          k = 0.5556-0.1111 0.7778 (  2026 PWs)   bands (ev):

    -6.0099  -5.9216  -5.8533  -5.8151  -5.7150   3.8577   8.5008  10.6482
    13.4749  19.6452  23.4112

     occupation numbers 
     1.0000   1.0000   1.0000   1.0000   1.0000   1.0000   1.0000   0.9232
    -0.0000  -0.0000  -0.0000

          k = 0.4444 0.0000 0.6667 (  2023 PWs)   bands (ev):

    -5.9822  -5.9518  -5.8710  -5.7775  -5.7615   3.0183   9.4622  10.8804
    14.3983  20.2555  22.9813

     occupation numbers 
     1.0000   1.0000   1.0000   1.0000   1.0000   1.0000   1.0003   0.6500
    -0.0000  -0.0000  -0.0000

          k = 0.7778-0.1111 1.0000 (  2025 PWs)   bands (ev):

    -6.0944  -6.0232  -5.7661  -5.7249  -5.6845   3.9676   8.5477  11.9774
    12.3058  18.3042  19.3566

     occupation numbers 
     1.0000   1.0000   1.0000   1.0000   1.0000   1.0000   1.0000  -0.0131
    -0.0015  -0.0000  -0.0000

          k = 0.6667-0.0000 0.8889 (  2031 PWs)   bands (ev):

    -6.0486  -5.9765  -5.8041  -5.7766  -5.6859   4.3165   8.7140  10.2222
    12.5338  19.0204  21.7915

     occupation numbers 
     1.0000   1.0000   1.0000   1.0000   1.0000   1.0000   1.0000   1.0321
    -0.0002  -0.0000  -0.0000

          k = 0.5556-0.1111 1.0000 (  2032 PWs)   bands (ev):

    -5.9773  -5.9632  -5.8818  -5.7906  -5.6852   4.1975   9.1973  10.1466
    11.7972  21.3353  22.5135

     occupation numbers 
     1.0000   1.0000   1.0000   1.0000   1.0000   1.0000   1.0000   1.0263
    -0.0275  -0.0000  -0.0000

     the Fermi energy is    10.9786 ev

!    total energy              =    -859.43292597 Ry

     total all-electron energy =    -41752.933068 Ry
     estimated scf accuracy    <          2.1E-10 Ry
     smearing contrib. (-TS)   =       0.00104966 Ry
     internal energy E=F+TS    =    -859.43397563 Ry

     The total energy is F=E-TS. E is the sum of the following terms:
     one-electron contribution =     -28.01093792 Ry
     hartree contribution      =      26.81134839 Ry
     xc contribution           =     -32.30499898 Ry
     ewald contribution        =     -96.05234292 Ry
     one-center paw contrib.   =    -729.87704419 Ry
      -> PAW hartree energy AE =      97.36340625 Ry
      -> PAW hartree energy PS =     -97.63033836 Ry
      -> PAW xc energy AE      =    -761.24996502 Ry
      -> PAW xc energy PS      =      31.63985293 Ry
      -> total E_H with PAW    =      26.54441629 Ry
      -> total E_XC with PAW   =    -761.91511108 Ry

     convergence has been achieved in   6 iterations

     Forces acting on atoms (cartesian axes, Ry/au):

     atom    1 type  1   force =     0.00000000    0.00000000    0.00000000
     The non-local contrib.  to forces
     atom    1 type  1   force =     0.00000000    0.00000000    0.00000000
     The ionic contribution  to forces
     atom    1 type  1   force =    -0.00000000   -0.00000000   -0.00000000
     The local contribution  to forces
     atom    1 type  1   force =    -0.00000000    0.00000000   -0.00000000
     The core correction contribution to forces
     atom    1 type  1   force =     0.00000000   -0.00000000   -0.00000000
     The Hubbard contrib.    to forces
     atom    1 type  1   force =     0.00000000    0.00000000    0.00000000
     The SCF correction term to forces
     atom    1 type  1   force =    -0.00000000   -0.00000000    0.00000000

     Total force =     0.000000     Total SCF correction =     0.000000


     Computing stress (Cartesian axis) and pressure

          total   stress  (Ry/bohr**3)                   (kbar)     P=      -11.69
  -0.00007945   0.00000000   0.00000000          -11.69        0.00        0.00
   0.00000000  -0.00007945  -0.00000000            0.00      -11.69       -0.00
   0.00000000  -0.00000000  -0.00007945            0.00       -0.00      -11.69

     kinetic stress (kbar)  30491.75      0.00     -0.00
                                0.00  30491.75      0.00
                               -0.00      0.00  30491.75

     local   stress (kbar)   3255.46     -0.00     -0.00
                               -0.00   3255.46     -0.00
                               -0.00     -0.00   3255.46

     nonloc. stress (kbar) -12225.85     -0.00     -0.00
                               -0.00 -12225.85      0.00
                               -0.00      0.00 -12225.85

     hartree stress (kbar)   6421.88      0.00      0.00
                                0.00   6421.88      0.00
                                0.00      0.00   6421.88

     exc-cor stress (kbar)   7004.64      0.00     -0.00
                                0.00   7004.64      0.00
                               -0.00      0.00   7004.64

     corecor stress (kbar) -11953.03      0.00      0.00
                                0.00 -11953.03      0.00
                                0.00      0.00 -11953.03

     ewald   stress (kbar) -23006.53     -0.00     -0.00
                               -0.00 -23006.53      0.00
                               -0.00      0.00 -23006.53

     hubbard stress (kbar)      0.00      0.00      0.00
                                0.00      0.00      0.00
                                0.00      0.00      0.00

     DFT-D   stress (kbar)      0.00      0.00      0.00
                                0.00      0.00      0.00
                                0.00      0.00      0.00

     XDM     stress (kbar)      0.00      0.00      0.00
                                0.00      0.00      0.00
                                0.00      0.00      0.00

     dft-nl  stress (kbar)      0.00      0.00      0.00
                                0.00      0.00      0.00
                                0.00      0.00      0.00

     TS-vdW  stress (kbar)      0.00      0.00      0.00
                                0.00      0.00      0.00
                                0.00      0.00      0.00


                                0.00      0.00      0.00
                                0.00      0.00      0.00


                                0.00      0.00      0.00


     Writing output data file ./tmp/Pb.save/

     init_run     :      2.89s CPU      1.34s WALL (       1 calls)
     electrons    :     74.55s CPU     27.65s WALL (       1 calls)
     forces       :      4.81s CPU      2.95s WALL (       1 calls)
     stress       :      5.08s CPU      2.17s WALL (       1 calls)

     Called by init_run:
     wfcinit      :      1.86s CPU      0.60s WALL (       1 calls)
     wfcinit:atom :      0.05s CPU      0.02s WALL (      35 calls)
     wfcinit:wfcr :      1.72s CPU      0.55s WALL (      35 calls)
     potinit      :      0.17s CPU      0.20s WALL (       1 calls)
     hinit0       :      0.73s CPU      0.43s WALL (       1 calls)

     Called by electrons:
     c_bands      :     59.31s CPU     21.09s WALL (       7 calls)
     sum_band     :     13.11s CPU      4.60s WALL (       7 calls)
     v_of_rho     :      0.46s CPU      0.45s WALL (       7 calls)
     v_h          :      0.02s CPU      0.02s WALL (       7 calls)
     v_xc         :      0.76s CPU      0.59s WALL (       9 calls)
     newd         :      0.63s CPU      0.56s WALL (       7 calls)
     PAW_pot      :      1.11s CPU      1.12s WALL (       7 calls)
     mix_rho      :      0.10s CPU      0.05s WALL (       7 calls)

     Called by c_bands:
     init_us_2    :      1.54s CPU      0.48s WALL (     595 calls)
     cegterg      :     56.97s CPU     20.40s WALL (     245 calls)

     Called by sum_band:
     sum_band:wei :      0.02s CPU      0.01s WALL (       7 calls)
     sum_band:loo :      9.97s CPU      3.51s WALL (       7 calls)
     sum_band:buf :      0.04s CPU      0.01s WALL (     245 calls)
     sum_band:ini :      0.60s CPU      0.20s WALL (     245 calls)
     sum_band:cal :      1.27s CPU      0.67s WALL (     245 calls)
     sum_band:bec :      0.01s CPU      0.00s WALL (     245 calls)
     addusdens    :      2.89s CPU      1.00s WALL (       7 calls)
     addusd:skk   :      0.01s CPU      0.00s WALL (       7 calls)
     addusd:dgemm :      0.78s CPU      0.30s WALL (       7 calls)
     addusd:qvan2 :      1.60s CPU      0.51s WALL (       7 calls)

     Called by *egterg:
     cdiaghg      :      1.19s CPU      0.42s WALL (    1016 calls)
     cegterg:over :      1.21s CPU      0.46s WALL (     806 calls)
     cegterg:upda :      1.10s CPU      0.44s WALL (     806 calls)
     cegterg:last :      1.55s CPU      0.61s WALL (     520 calls)
     h_psi        :     51.91s CPU     18.36s WALL (    1086 calls)
     s_psi        :      0.85s CPU      0.35s WALL (    1086 calls)
     g_psi        :      0.15s CPU      0.05s WALL (     806 calls)

     Called by h_psi:
     h_psi:calbec :      7.45s CPU      4.38s WALL (    1086 calls)
     vloc_psi     :     43.40s CPU     13.56s WALL (    1086 calls)
     add_vuspsi   :      0.91s CPU      0.37s WALL (    1086 calls)

     General routines
     calbec       :     12.42s CPU      7.46s WALL (    1506 calls)
     fft          :      0.48s CPU      0.34s WALL (     115 calls)
     ffts         :      0.04s CPU      0.02s WALL (      14 calls)
     fftw         :     47.48s CPU     14.91s WALL (   17767 calls)
     interpolate  :      0.03s CPU      0.03s WALL (       7 calls)

     Parallel routines

     PAW routines
     PAW_pot      :      1.11s CPU      1.12s WALL (       7 calls)
     PAW_symme    :      0.01s CPU      0.01s WALL (      14 calls)

     PWSCF        :   1m27.67s CPU     34.33s WALL


   This run was terminated on:  17:18:40  12Jun2022            

=------------------------------------------------------------------------------=
   JOB DONE.
=------------------------------------------------------------------------------=
